/*--------------------------------*- C++ -*----------------------------------*\
| =========                 |                                                 |
| \\      /  F ield         | OpenFOAM: The Open Source CFD Toolbox           |
|  \\    /   O peration     | Version:  v1806                                 |
|   \\  /    A nd           | Web:      www.OpenFOAM.com                      |
|    \\/     M anipulation  |                                                 |
\*---------------------------------------------------------------------------*/
FoamFile
{
    version     2.0;
    format      ascii;
    class       volScalarField;
    location    "900";
    object      p;
}
// * * * * * * * * * * * * * * * * * * * * * * * * * * * * * * * * * * * * * //

dimensions      [0 2 -2 0 0 0 0];


internalField   nonuniform List<scalar> 
6400
(
0.185292659297
0.184891013341
0.184480364553
0.184265306965
0.184388786205
0.184258564625
0.183465896696
0.181978564009
0.179928071548
0.177374249171
0.174403518034
0.171110970489
0.167592375944
0.163937933566
0.16022840774
0.156533202729
0.152909898841
0.149404775775
0.146053920569
0.142884611538
0.139916762963
0.137164295021
0.134636354781
0.13233835734
0.130272844047
0.128440170969
0.126839048848
0.125466959111
0.124320471604
0.123395487821
0.122687424571
0.122191343324
0.121902057207
0.121814326203
0.121923257107
0.122224778249
0.122715403804
0.123389378321
0.1242385104
0.125255958416
0.126435817808
0.127771592936
0.12925671151
0.130884660966
0.132649051004
0.13454363573
0.136562310283
0.13869908528
0.140948038847
0.14330324539
0.145758681125
0.148308108183
0.150944941503
0.153662105442
0.156451889804
0.159305817411
0.162214537055
0.165167756149
0.168154226403
0.171161793338
0.174177516245
0.177187859384
0.180178948004
0.183136874507
0.186048031291
0.188899438375
0.191679023108
0.194375795104
0.196979851638
0.199482150384
0.201873957164
0.204145749461
0.206285169368
0.208274026772
0.210085975451
0.211685748384
0.213020308889
0.213989416508
0.21445827359
0.214476526021
0.185090774946
0.184668353592
0.184426773865
0.184230141814
0.184073881327
0.184058570453
0.183322445966
0.181841628858
0.179757955255
0.177158635293
0.174142140887
0.170809015573
0.167257726357
0.163579424394
0.159854701125
0.15615209785
0.152527970923
0.149027254665
0.145684730322
0.142526505889
0.139571506979
0.136832858227
0.134319093969
0.132035177156
0.129983330358
0.128163696285
0.126574851276
0.125214196868
0.124078254827
0.123162890624
0.122463481701
0.121975015932
0.121692089497
0.121608933822
0.12171995782
0.122021063863
0.122510446072
0.123184482525
0.124036206738
0.125057815496
0.126241416215
0.127579984413
0.12906679284
0.13069530559
0.132459152622
0.13435212468
0.136368163331
0.138501335855
0.140745789794
0.143095684135
0.145545096192
0.148087905269
0.150717657005
0.153427415013
0.156209609583
0.15905589572
0.161957034827
0.164902814957
0.167882023665
0.170882484885
0.173891167331
0.1768943659
0.179877950494
0.182827668473
0.185729477803
0.188569879932
0.191336213288
0.194016854796
0.196601266481
0.199079837316
0.201443429065
0.203682459832
0.205785296976
0.207735909096
0.209511424006
0.211080075871
0.212396130109
0.213386068392
0.213945952169
0.214047207598
0.185529973172
0.184960737794
0.184533757069
0.184298495709
0.183916833663
0.183408353929
0.182379281275
0.180738907003
0.178533931082
0.175844911224
0.172770127007
0.169409096614
0.165857225596
0.162201301948
0.158517028183
0.154868104983
0.151306473217
0.147873286838
0.144600263224
0.141511153982
0.138623170523
0.135948271419
0.133494270147
0.131265755038
0.129264832372
0.127491712897
0.125945165123
0.124622859099
0.123521625246
0.122637654287
0.121966649114
0.121503873687
0.121243993585
0.121181028937
0.121309935808
0.121629970128
0.122138439698
0.122827683328
0.123690570891
0.124720537294
0.125910700057
0.127254280015
0.128744626299
0.130375234111
0.132139758068
0.134032021146
0.136046012991
0.138175871709
0.140415844279
0.142760221963
0.145203248813
0.147739003632
0.150361258554
0.153063320656
0.155837866374
0.158676781622
0.161571022907
0.164510515914
0.167484107034
0.170479580653
0.17348375131
0.176482633669
0.179461685496
0.182406111611
0.185301205541
0.188132697969
0.190887075976
0.193551831085
0.196115555053
0.198567866851
0.200899078785
0.203099458077
0.205158035512
0.207060866757
0.208788563759
0.210313394019
0.211597186972
0.212585981788
0.213188765707
0.213339461697
0.18637454541
0.185731336123
0.185055015203
0.184394767495
0.183578510468
0.182523857569
0.1810650229
0.179134467763
0.176739055291
0.173935694851
0.170806167717
0.167438460389
0.163917949728
0.160322183359
0.156718478033
0.153163231266
0.149702319079
0.146372100271
0.143200691218
0.140209291706
0.137413433082
0.134824084061
0.132448591008
0.130291453914
0.128354952011
0.126639637974
0.125144720373
0.123868354961
0.12280786964
0.121959946167
0.121320742372
0.120885855261
0.120650090391
0.120607715888
0.120754958786
0.121093419197
0.121619283387
0.122322990043
0.123198161121
0.124238081919
0.125435999821
0.126785219851
0.128279143962
0.129911302833
0.131675383862
0.133565252902
0.135574964452
0.137698754496
0.139931010458
0.142266213605
0.144698850778
0.147223294582
0.149833654284
0.152523603352
0.155286193544
0.158113669241
0.160997298923
0.16392724265
0.166892473716
0.169880768873
0.172878778978
0.17587218608
0.17884594179
0.181784579719
0.184672576729
0.18749473402
0.190236532863
0.192884471125
0.195426215533
0.197850635917
0.200147650282
0.202307663074
0.20432069004
0.206175113847
0.207855494669
0.209339422836
0.210596686574
0.211588031037
0.212221314461
0.212423829164
0.18726558452
0.186414706865
0.185387961628
0.184230381361
0.182898860487
0.181332145884
0.179436638559
0.177174370501
0.174552620793
0.171615430185
0.168427561677
0.165061093397
0.161587042121
0.158070369667
0.154567685827
0.151126606141
0.147786089339
0.144577278304
0.141524542434
0.1386465425
0.13595722246
0.133466684829
0.13118193651
0.129107508339
0.127245959339
0.125598278957
0.124164200331
0.12294244132
0.121930900287
0.121126821697
0.120526861273
0.120126905831
0.119921900894
0.119907006929
0.120080749236
0.120443605965
0.120990176633
0.121711492483
0.1226014264
0.123653451223
0.124860961922
0.126217345728
0.127716044191
0.129350605214
0.131114729135
0.133002307044
0.135007446804
0.137124480833
0.139347949274
0.141672552525
0.1440930684
0.146604231427
0.149200575219
0.151876243153
0.154624777305
0.157438900468
0.160310310075
0.163229506083
0.166185675668
0.169166649993
0.172158947301
0.175147916942
0.178117970991
0.181052911485
0.183936313391
0.186751961757
0.189484214094
0.192118490187
0.194641453212
0.197041127744
0.19930698618
0.201429516734
0.203399530262
0.205207312171
0.206840940874
0.208283028915
0.209509200514
0.210495099017
0.211141692243
0.211393696407
0.187762342724
0.186523564552
0.185159545627
0.183565668138
0.181769613508
0.179750481086
0.1774665957
0.174904276951
0.172077157232
0.169022652139
0.165792119336
0.162442377235
0.159029634908
0.15560571153
0.152216200096
0.148899898871
0.145688999412
0.142609661854
0.139682748138
0.13692458219
0.134347668909
0.131961340361
0.129772317538
0.127785186699
0.126002794671
0.124426569153
0.123056770504
0.121892688389
0.120932811942
0.12017497964
0.119616382415
0.119253244621
0.119080795753
0.119095566298
0.11929901955
0.119688565145
0.120256744695
0.1209970261
0.121903042762
0.122968338285
0.124186379066
0.125550597849
0.127054452499
0.128691488494
0.130455400408
0.132340087833
0.134339700022
0.136448662273
0.138661676278
0.140973686576
0.143379806308
0.145875197614
0.148454905749
0.15111365121
0.153845589706
0.156644056106
0.159501313836
0.162408334507
0.16535464002
0.168328222562
0.171315550653
0.1743017077
0.177270607592
0.180205355101
0.183088626842
0.185903240801
0.18863240367
0.19126049895
0.193773242395
0.196157789167
0.198403167888
0.200499887029
0.20243926705
0.204212860925
0.205811319387
0.207221345162
0.208420475884
0.209400570174
0.210050908282
0.21034887465
0.187115523506
0.185729992548
0.184178348133
0.182268868352
0.180121578852
0.177752349354
0.175164813856
0.172368448096
0.16938467111
0.166247432716
0.162998228174
0.159681405958
0.156340486211
0.153015783934
0.149743185959
0.146553719982
0.143473614221
0.140524623114
0.137724477764
0.135087378157
0.132624480406
0.130344352919
0.128253387184
0.126356156158
0.124655717997
0.123153865305
0.121851322178
0.120747900139
0.119842639105
0.119133930222
0.118619474386
0.118295923644
0.118159009559
0.118206331277
0.118440618087
0.118858159896
0.119450099287
0.120210769026
0.121134055655
0.122213658989
0.123443125139
0.124815913139
0.126325468795
0.127965302869
0.129729070147
0.131610645089
0.133604188015
0.13570419387
0.137905514103
0.140203341598
0.142593149286
0.145070574995
0.147631248874
0.150270566674
0.152983418073
0.15576388717
0.158604952054
0.161498205881
0.164433650025
0.167399584184
0.17038254865
0.173367488247
0.176337909926
0.17927634322
0.182164596893
0.1849847044
0.187718714809
0.190350088712
0.192863755252
0.195245978652
0.197485364755
0.199572352671
0.201498460493
0.203255908365
0.204836766328
0.206231156015
0.207414444618
0.208395624205
0.209047822721
0.20938841929
0.18542377028
0.184037219881
0.182417860556
0.180322010688
0.177951797259
0.175350419499
0.172558604593
0.169606541576
0.166524561711
0.163345897677
0.160105593063
0.156838853675
0.153579448878
0.150358598196
0.147204352195
0.14414134389
0.141190791132
0.138370655051
0.135695890892
0.133178748168
0.130829089644
0.128654706518
0.126661613286
0.124854311298
0.123236014615
0.12180883532
0.120573929783
0.119531616602
0.11868148423
0.118022470302
0.117552788013
0.117269641899
0.117169536792
0.117250962692
0.117516841326
0.117962839958
0.118579339261
0.119361211377
0.12030257624
0.121397268575
0.122638891888
0.124020905424
0.125536713202
0.127179757755
0.128943617046
0.130822101109
0.132809342293
0.13489987014
0.137088659581
0.139371139624
0.141743150171
0.144200836321
0.14674047196
0.149358215241
0.152049804732
0.154810209669
0.157633278752
0.160511391247
0.163435183394
0.166393453937
0.16937295722
0.172358700424
0.175333893505
0.17828074819
0.181180205524
0.184013920627
0.186762794183
0.189409555448
0.191938650999
0.194335362875
0.196587916228
0.198686520484
0.200622493898
0.202388263979
0.203976047492
0.205378738571
0.206566167614
0.2075633819
0.208223754888
0.208606067439
0.18295936401
0.181610793573
0.179982423696
0.177799788386
0.175317049587
0.172590549474
0.169688660616
0.166657492517
0.163535668688
0.160357408654
0.157154116048
0.153954925366
0.150786728486
0.147674078595
0.144639096667
0.141701425503
0.138878247498
0.136184367358
0.133632352898
0.131232719876
0.128994142642
0.126923671793
0.125026942695
0.123308363079
0.121771272211
0.120418068124
0.119250306431
0.118268784332
0.11747361592
0.116864249027
0.116439331578
0.116196586825
0.116133540066
0.116249809629
0.116547533018
0.117021826359
0.117662972528
0.118466279252
0.119426064529
0.120536260875
0.121790496525
0.123182199268
0.124704698034
0.126351330046
0.128115554421
0.129991070087
0.131971931994
0.134052655625
0.136228296545
0.138494488822
0.140847426057
0.143283772268
0.145800485735
0.14839455778
0.151062681994
0.153800840728
0.156603909349
0.159465235888
0.162376226343
0.16532643308
0.168302939587
0.171291125136
0.174273957574
0.177233835725
0.180150713141
0.183006619742
0.185781316215
0.188457010049
0.191018186374
0.193448870107
0.195737184068
0.19787310178
0.199847245689
0.201652005949
0.203278580094
0.20472119527
0.205942106329
0.206977821679
0.207660329959
0.208088155203
0.179906527958
0.178615480174
0.177014628955
0.174816686094
0.172305673574
0.169540087287
0.166607106498
0.16356321872
0.160453512554
0.157313748669
0.154173600922
0.151058542618
0.147990978743
0.144990879609
0.142076103101
0.139262549827
0.136564252052
0.133993457289
0.131560734668
0.129275108515
0.12714420997
0.125174432471
0.123371077844
0.121738483343
0.1202801235
0.118998684325
0.117896117034
0.116973691203
0.116232041511
0.115671105707
0.115289870444
0.115086448689
0.115059761758
0.115211726333
0.115541436389
0.116042900147
0.116708371728
0.117533106159
0.118511502811
0.119637526473
0.120904792313
0.122306668014
0.12383637933
0.125487125643
0.127252207395
0.129125164403
0.131099919312
0.13317091483
0.135333229699
0.137582653773
0.139915698676
0.142329535275
0.144821824672
0.147390435504
0.150033108793
0.152746950118
0.155527996002
0.158370784443
0.161267531189
0.164208906974
0.167182318149
0.170174030855
0.173166657468
0.176143708167
0.17908376445
0.181970325507
0.184781964581
0.187500421179
0.190111261876
0.19259677019
0.194946144412
0.197149785604
0.199196455469
0.201077927094
0.202783513626
0.204305721115
0.205599290547
0.206702790457
0.207428360581
0.207912716097
0.176410534788
0.175195214126
0.173651044955
0.171490326006
0.169013012434
0.166273488388
0.163370944294
0.160367436777
0.157312481519
0.154243237251
0.151188747145
0.148172478332
0.145214107254
0.142330616466
0.139536918989
0.136846196301
0.134270090724
0.131818841024
0.129501406073
0.127325590982
0.125298173225
0.123425020004
0.121711188432
0.120161003146
0.118778108482
0.117565495197
0.116525512688
0.115659892565
0.114969769309
0.114455544123
0.114116506954
0.113951108142
0.113959677104
0.114146611681
0.11450752389
0.11503492626
0.115724097832
0.116569916297
0.117566778192
0.118708637689
0.119989073256
0.121401375106
0.122938647569
0.124593927992
0.126360324294
0.128231171679
0.130200203993
0.132261726184
0.134410770636
0.136643218304
0.138955840613
0.141346276065
0.143812886115
0.14635442008
0.148969741556
0.151657168596
0.15441395771
0.157236164943
0.160116626047
0.163047716353
0.166016909345
0.169012228108
0.172015491569
0.175012658619
0.177980105233
0.180903950854
0.183761684035
0.186534596291
0.189211767948
0.191772861205
0.194210489383
0.196516858114
0.198675920983
0.200677367333
0.202508373775
0.204155697204
0.205570603981
0.206782059882
0.207582971071
0.208147232773
0.172611712579
0.171483248969
0.170015743183
0.167929300285
0.165529482818
0.162863044224
0.160036262033
0.157113083147
0.15414566989
0.151172117523
0.148221354719
0.145315849367
0.142473716937
0.139710070739
0.137037849103
0.134468307456
0.132011323973
0.129675612672
0.127468892558
0.125398031163
0.123469164968
0.121687793629
0.120058845421
0.118586713825
0.11727526674
0.116127831867
0.115147172216
0.114335479018
0.113694362059
0.11322466704
0.112926061127
0.112797448467
0.11284002016
0.113058809841
0.113449049007
0.114002398653
0.114714809725
0.115581276677
0.11659626091
0.117753729974
0.119047233303
0.120469986585
0.12201497094
0.123675051945
0.125443123245
0.127312278402
0.129276010259
0.131328421442
0.133464420301
0.135679905236
0.13797183079
0.140338230577
0.142778155505
0.145291177266
0.147877328949
0.150536230188
0.153266221243
0.156065462305
0.158926811302
0.161845311109
0.164807873898
0.167805453453
0.170818179357
0.173835642058
0.176830977973
0.179794298991
0.182703258681
0.185538826093
0.188298268582
0.190956657396
0.19350947977
0.195951054011
0.198259015116
0.200421128556
0.202424284963
0.204249663204
0.205847831494
0.207227477879
0.208155093276
0.20884348755
0.168636276171
0.167598131645
0.166218056568
0.164229618038
0.16193603606
0.159374556305
0.156654947321
0.153840343354
0.150984114474
0.148124709614
0.145291079241
0.142505217745
0.139784380739
0.137142539945
0.134591335408
0.132140689196
0.129799217933
0.127574528958
0.125473444422
0.123502171862
0.121666427374
0.119971513916
0.118422358298
0.117023512343
0.115779124514
0.114692890116
0.113767996483
0.113007085545
0.112412207588
0.111984620224
0.111724431398
0.111631107353
0.111706381506
0.111955173868
0.112373070022
0.112951269757
0.113685959155
0.114572219572
0.115604567578
0.116776990212
0.11808302
0.119515812647
0.121068238608
0.122732997258
0.12450276112
0.126370357256
0.12832899294
0.130372512634
0.132495617016
0.134694148075
0.136965161034
0.139306962045
0.141719302755
0.14420243341
0.146757542088
0.14938572148
0.152085874532
0.154859324514
0.157697816536
0.160600334475
0.163552226165
0.166548144676
0.16956560447
0.172598393932
0.175616689493
0.178617031565
0.181582066674
0.184488324591
0.187344681619
0.190123241075
0.192810752083
0.195403519482
0.197888276833
0.200253992249
0.202484847707
0.20455598489
0.206413900153
0.208037417057
0.209164793648
0.210042032927
0.164587314447
0.163638139918
0.162349714541
0.16047269022
0.158302227411
0.155865458844
0.153273063409
0.150585452615
0.147856090223
0.145123179648
0.14241560278
0.139755081092
0.13715837911
0.134638765287
0.132207032466
0.129872201418
0.127642024135
0.125523355229
0.123522427395
0.121645047767
0.119896724145
0.118282729063
0.116808111286
0.115477665553
0.114295871274
0.113266813295
0.112394104733
0.111680824431
0.111129424
0.11074150214
0.110517578876
0.110457771564
0.110564283542
0.110841488776
0.111285591799
0.111887313834
0.112643012103
0.113547842076
0.114596374519
0.115782627529
0.117100137402
0.118542026247
0.120101080798
0.121769856021
0.1235408137
0.125406505832
0.12735981658
0.129394298154
0.131504353089
0.133685699468
0.135935435431
0.138251927052
0.140635709527
0.143087477385
0.145609430139
0.148204559907
0.150871243873
0.153615524565
0.15642645677
0.15930776911
0.162242402734
0.1652282507
0.168240938239
0.171279635438
0.174317423176
0.177352373608
0.180384302988
0.183370024785
0.186314301359
0.189203791065
0.192030791467
0.194791718933
0.197479939499
0.200087148594
0.202598190002
0.204984536186
0.207188265914
0.209152302776
0.210593665431
0.211776245329
0.160545525241
0.159681345093
0.158484602731
0.15672499224
0.154685754828
0.152384215873
0.149930181015
0.147380080009
0.144786652604
0.142187307598
0.139610655433
0.137078147563
0.134606210342
0.132207650479
0.129892704544
0.127669803472
0.125546145708
0.123528128098
0.121621660991
0.119832382095
0.118165780756
0.11662724584
0.115222052646
0.113955304428
0.112831842615
0.111856143448
0.111032227625
0.110363584644
0.109853018189
0.109502328886
0.109312281859
0.109283939882
0.10942068885
0.109725136254
0.110193853497
0.110817467773
0.111592538715
0.112514298571
0.113577367526
0.114775804737
0.116103173765
0.117552596875
0.119116814844
0.120788274066
0.122559251661
0.124422038579
0.126369153783
0.128393864965
0.130490173803
0.132653603794
0.134881322255
0.137171385253
0.139525320945
0.141943998379
0.144430257058
0.146989808475
0.14961885124
0.152329564488
0.155106823467
0.157958353339
0.160865613281
0.163829330356
0.166829007079
0.169865037773
0.172934202595
0.175998002565
0.179062110828
0.182106454694
0.185127005246
0.188118222596
0.191077885605
0.194007290482
0.19690743038
0.199776680507
0.202604868408
0.205364640873
0.20799640014
0.210410354527
0.212325988351
0.213973884604
0.156573168139
0.155788513011
0.15468074133
0.153039339195
0.151133173656
0.148970606788
0.146659374117
0.144251175348
0.141797463313
0.139334390869
0.136890061701
0.134485558004
0.132136995591
0.1298568379
0.12765494893
0.125539393452
0.123517057566
0.121594119501
0.119776388379
0.118069523751
0.116479150478
0.115010887261
0.113670309674
0.112462867345
0.111393771424
0.110467873202
0.109689568674
0.109062721691
0.108590438715
0.108274583163
0.108115969898
0.108117151668
0.108284685942
0.108615946884
0.109106137158
0.109749501161
0.110541939656
0.11147861401
0.112554143205
0.113762625978
0.115097674859
0.116552449672
0.118119689324
0.119791779478
0.121560847122
0.123418976693
0.125358245398
0.127371714993
0.129452867595
0.131596917349
0.133801308359
0.136063200999
0.13838547252
0.140768991303
0.14321651977
0.145737433261
0.148323849015
0.150994396716
0.15372967924
0.156539557622
0.159410371206
0.162341947999
0.165336700801
0.168358394982
0.171414719572
0.174484840202
0.177562634598
0.180637972338
0.183707526294
0.186771621789
0.189834870562
0.192906189813
0.195996273868
0.199113982637
0.202258908501
0.205410983931
0.208513247516
0.211447792029
0.213938826362
0.21606873349
0.15271753474
0.152006126493
0.150982820917
0.149456828649
0.147681235567
0.145656552615
0.143487661626
0.141221162865
0.138906863894
0.136579301908
0.134265855873
0.131987102577
0.129758813931
0.127593159256
0.125499746054
0.123486434407
0.121559983294
0.119726541018
0.117991990687
0.116362162875
0.114842933421
0.113440229598
0.112159970258
0.111007962862
0.10998977479
0.109110601132
0.108375167727
0.107787654055
0.107351414443
0.107068381228
0.106939484716
0.106968417476
0.107163373958
0.107519504882
0.10803007161
0.108691379253
0.109499118336
0.110448450513
0.111534022025
0.112749992291
0.114090048112
0.115547426571
0.117114907549
0.118784877972
0.120549334483
0.122400291718
0.124329217329
0.126329146796
0.128392926321
0.130515230298
0.132694280996
0.134925568795
0.137213696308
0.139559539551
0.141964612999
0.144442448928
0.146979617757
0.149599971743
0.152286503308
0.155043691772
0.157884370657
0.160771702405
0.163719994896
0.166708849562
0.169731514984
0.172775316918
0.175832518833
0.178897447914
0.181969664166
0.185054385511
0.188162894134
0.191312494592
0.194524610996
0.197820704408
0.201213098391
0.204693286142
0.208203227866
0.211574537801
0.214521931414
0.216988869352
0.149013732689
0.148368980254
0.147424563757
0.146008804419
0.144358379478
0.14246716022
0.140436682088
0.138308348653
0.136130121096
0.133934661743
0.131748450569
0.129591425744
0.127478962128
0.125422949981
0.123432814921
0.121516328234
0.119680259158
0.117930865677
0.11627423052
0.11471645526
0.113263734437
0.111922337808
0.110698530338
0.109598455195
0.108627998245
0.107792656073
0.10709744133
0.106546797187
0.10614429638
0.105892073017
0.105791445421
0.105846806063
0.106066167298
0.106444680755
0.106974154879
0.107651424899
0.108472221285
0.109431738792
0.110524666391
0.111745241358
0.113087239079
0.114544013276
0.116108410012
0.11777290925
0.119529325038
0.121369893202
0.123285138289
0.1252683652
0.127311744928
0.129409000078
0.131559924551
0.133757519453
0.136008130073
0.138312801011
0.140670170018
0.143097901017
0.145581036012
0.148138201023
0.150783375202
0.153479969268
0.156253138376
0.159084035092
0.161968794282
0.164894657688
0.167851441239
0.170828580819
0.173818343017
0.176816682238
0.179825027011
0.182851528982
0.185911888304
0.189029571137
0.192234340709
0.195557737348
0.199021483411
0.202622139535
0.206260941602
0.209677577945
0.213110500049
0.217022471615
0.145487119824
0.144902461567
0.144030816698
0.142718645127
0.14118615715
0.139421789717
0.137523445811
0.135527426238
0.133479762799
0.131411075431
0.129346824905
0.127306201424
0.125304133131
0.123352232679
0.121459792443
0.119634575182
0.117883455128
0.116212892274
0.114629245261
0.113138937926
0.111748506069
0.110464557159
0.109293675467
0.108242298665
0.107316584825
0.106522291778
0.105864689043
0.1053484467
0.104977318725
0.104753739269
0.104679695022
0.104760104058
0.105001750409
0.105400449325
0.105946773754
0.106637790378
0.107469231135
0.108436297765
0.109533704362
0.110755778116
0.112096373525
0.113549011038
0.115106575989
0.116761804618
0.1185060992
0.120332450636
0.122229910782
0.124192433209
0.126211676267
0.128279785575
0.130398903388
0.132558825858
0.134766965455
0.137025125386
0.139329376603
0.141696108119
0.144133355032
0.146624683543
0.149192818339
0.15182311817
0.154518218642
0.157268084554
0.160063860899
0.16289367415
0.165745568688
0.168608253162
0.171472845562
0.174334321025
0.17719302795
0.180056023279
0.182938062488
0.185861967038
0.18885736639
0.191955487092
0.195173610899
0.198483304529
0.201653605561
0.204654725817
0.208224932846
0.214293693472
0.142155421602
0.141624537893
0.140819374713
0.139603338666
0.138180519675
0.136535054288
0.134761074049
0.132890000901
0.130965940927
0.129017383226
0.127068703396
0.12513826627
0.123240517842
0.121386791255
0.11958627665
0.117846779084
0.116175334482
0.114578654061
0.113063404221
0.111636340379
0.110304326233
0.109074275063
0.107953047071
0.106947327225
0.106063501667
0.105307557111
0.104685007494
0.10420073387
0.103858592534
0.10366128031
0.103611839113
0.103716088528
0.103978071209
0.104394759905
0.104955710409
0.105658121863
0.106497681747
0.10746955939
0.108568444975
0.109788785109
0.111124458228
0.112569244673
0.114115924056
0.11575779751
0.117485340948
0.119293128081
0.121168146334
0.123105287448
0.125096069491
0.127130152299
0.129212469828
0.13132934661
0.133488511858
0.135693149331
0.137947073617
0.140253093113
0.142616179321
0.145038293952
0.147524751177
0.150069609083
0.152668865166
0.155313241773
0.157991168776
0.16068897085
0.163392206201
0.166086880145
0.168760784709
0.17140473338
0.174013624401
0.176587193439
0.179130237943
0.181651930587
0.184163270616
0.186670292965
0.18915684071
0.191537083831
0.193448850886
0.194534725866
0.194859848197
0.198397272385
0.13903048561
0.138547418952
0.137802518477
0.136674825452
0.135352935496
0.133817710706
0.132159477001
0.130405084962
0.128596780094
0.126760897052
0.124920708763
0.123093709317
0.121293844285
0.11953216594
0.117817779894
0.116158559384
0.114561725858
0.113034254129
0.11158311354
0.110215367692
0.108938168839
0.107758686416
0.10668400352
0.105721002264
0.104876253221
0.104155939144
0.103565806546
0.103110938297
0.10279517864
0.102621330174
0.102594183207
0.10272216482
0.103003345984
0.103435037979
0.104008145293
0.104719469811
0.105564541458
0.106538446584
0.1076357388
0.108851071681
0.110178194824
0.11161133996
0.113142840342
0.114767104558
0.116472924995
0.118257432079
0.120105197971
0.122011808635
0.123969054791
0.1259629177
0.128001293633
0.130070240022
0.132176378447
0.134329902195
0.13651654212
0.138752644595
0.141039992687
0.143379914671
0.145773409621
0.148215711893
0.150699438385
0.1532132529
0.155742660805
0.158270802527
0.160779461976
0.163250094566
0.165664740431
0.168006644817
0.170260378916
0.17241115744
0.174442824884
0.176333509616
0.178046830478
0.179513841422
0.180594321384
0.180979323099
0.180003278024
0.175103733502
0.158907038119
0.103592408755
0.136119684565
0.135678899905
0.134988270316
0.133941109594
0.132711330747
0.131277422768
0.129725946798
0.128079538399
0.126378689299
0.124647606661
0.122908483069
0.12117792429
0.119469372995
0.117793600471
0.116159634713
0.11457542238
0.113048367569
0.111585692297
0.110194637106
0.108882528395
0.107656752533
0.10652467759
0.105493554996
0.104570417567
0.103761985144
0.10307461229
0.102514264221
0.102086223989
0.101794320776
0.101641468632
0.1016344789
0.101784938501
0.102084418709
0.102527719019
0.103110467608
0.103828238597
0.104676199929
0.105649378477
0.106741960562
0.107949021847
0.109263865259
0.110681534932
0.112193406482
0.113795750822
0.115475002431
0.117231383097
0.119047028104
0.120916961704
0.122833909245
0.124781619262
0.126766767596
0.12879197422
0.130837825421
0.132922805714
0.135042067223
0.137201624784
0.139404214109
0.14165032909
0.143938087665
0.146261074358
0.148608859186
0.1509669152
0.153317075631
0.155638266379
0.157907290804
0.160099492571
0.162189087631
0.164148907732
0.165949198526
0.167554906879
0.168920458732
0.169980142014
0.170630307086
0.170695439083
0.16986058493
0.16752837966
0.162532950166
0.152104082026
0.127952120153
0.0768839061666
0.133427021716
0.1330234276
0.132381399041
0.131407157094
0.130260859933
0.128919396449
0.127465657945
0.125918444524
0.124316627397
0.122682350561
0.121036779044
0.119395634521
0.117771866982
0.116175967326
0.11461688419
0.113102626913
0.111640759773
0.110238716048
0.108903959561
0.107644023693
0.106466470819
0.10537881283
0.104388422151
0.103502445453
0.10272772821
0.102070781146
0.101537757097
0.10113411192
0.100863830654
0.100730339235
0.100741645792
0.100908695777
0.101223391109
0.101677781271
0.102268344512
0.102990339117
0.103838585091
0.104808349695
0.10589302454
0.107088537977
0.108387288775
0.109785678396
0.111273685015
0.112849963085
0.114498251534
0.116221192785
0.117998706797
0.119823957682
0.121691150977
0.123593934821
0.125524708234
0.127485615733
0.129470808904
0.131484764222
0.133527797089
0.13560289704
0.137711610459
0.139852695819
0.14202147628
0.144208733628
0.146400596124
0.148578678165
0.150720495671
0.152800049362
0.154788344381
0.156653619412
0.158361024475
0.159871411361
0.161138751875
0.162105410101
0.162693941024
0.162793036709
0.162233202299
0.160743858624
0.157875641661
0.152858330401
0.144330235889
0.129898599022
0.104491259435
0.0629654080874
0.130953992288
0.130582936962
0.129984212919
0.129075610325
0.128004525699
0.126746896546
0.125382078563
0.123925420613
0.122414321837
0.120868953297
0.119309527019
0.117750900499
0.116205550585
0.114683688358
0.113194174775
0.11174505954
0.11034403127
0.108998685938
0.107716652598
0.106505608287
0.105373226745
0.104327100091
0.103374659254
0.102523102856
0.101779345655
0.101150010666
0.100641391761
0.100259089264
0.100007497347
0.0998912476845
0.099919457267
0.100100425333
0.100427793412
0.100891313071
0.101487587382
0.102211543097
0.103057297771
0.104020941302
0.105094392069
0.106275091923
0.107554177314
0.108929832686
0.110390444599
0.111936517432
0.113548823879
0.115230110871
0.116961952719
0.118735911733
0.120554331985
0.122398492405
0.124270872228
0.126166692696
0.128082495913
0.130019540535
0.131978805397
0.133961507562
0.135967248649
0.137992437239
0.140029336256
0.142065308684
0.144082629803
0.146058670839
0.147966289332
0.14977426077
0.151447521199
0.15294696757
0.154228524641
0.155241102455
0.15592290479
0.156195250545
0.155952540447
0.155046084445
0.15325791246
0.150258112756
0.145534602194
0.138280198054
0.127201447502
0.110302832911
0.0840188695382
0.0476020526718
0.128700248134
0.128357500178
0.127797178465
0.126947349421
0.125943670229
0.124761659994
0.123477301898
0.122102869376
0.12067444513
0.119210333955
0.117729883874
0.11624711841
0.11477406722
0.113320661655
0.111895662148
0.110507128928
0.109162831083
0.107870471674
0.106637781574
0.105472513847
0.104382384141
0.103374994636
0.102457764398
0.101637875094
0.100922254348
0.100317617042
0.0998304022618
0.0994663085851
0.099230210646
0.0991287037766
0.0991726108015
0.0993652479146
0.0997034646941
0.100174099323
0.100773804437
0.101497390572