/*--------------------------------*- C++ -*----------------------------------*\
| =========                 |                                                 |
| \\      /  F ield         | OpenFOAM: The Open Source CFD Toolbox           |
|  \\    /   O peration     | Version:  v1806                                 |
|   \\  /    A nd           | Web:      www.OpenFOAM.com                      |
|    \\/     M anipulation  |                                                 |
\*---------------------------------------------------------------------------*/
FoamFile
{
    version     2.0;
    format      ascii;
    class       volScalarField;
    location    "900";
    object      p;
}
// * * * * * * * * * * * * * * * * * * * * * * * * * * * * * * * * * * * * * //

dimensions      [0 2 -2 0 0 0 0];


internalField   nonuniform List<scalar> 
6400
(
0.189454996793
0.189212289231
0.188830392585
0.188446979497
0.188297459594
0.18791354538
0.187036920012
0.185561006787
0.183530172068
0.18100694778
0.178074869767
0.174827064176
0.171357578197
0.167755148571
0.164099322157
0.160458515271
0.156889524963
0.153438021716
0.15013962518
0.147021257799
0.144102563184
0.141397254617
0.138914319625
0.136659049151
0.134633887577
0.132839115884
0.131273388602
0.129934148438
0.128817943631
0.127920670979
0.127237759732
0.12676430298
0.126495169792
0.126425208454
0.12654965704
0.126864604479
0.12736665347
0.128049871962
0.128906220785
0.12992918715
0.131112964178
0.13245121751
0.133937550655
0.135565630658
0.137329242851
0.139222306318
0.141238863592
0.143373047548
0.145619025132
0.147970917273
0.150422695291
0.152968056202
0.155600281779
0.158312089254
0.161095484246
0.163941629015
0.166840740493
0.169782033087
0.1727537198
0.175743082454
0.178736616687
0.181720251185
0.184679632521
0.187600458722
0.190468835679
0.19327162158
0.195996712813
0.198633214189
0.201171430412
0.203602603543
0.205918279103
0.208109080015
0.210162567389
0.212060339539
0.213775700665
0.21527150104
0.216489138527
0.217326456827
0.217678145951
0.217654722593
0.189497200924
0.189220151648
0.188956249552
0.188610966009
0.188199234619
0.18786305144
0.186971655179
0.18545880781
0.183379979847
0.180805251242
0.177824421943
0.17453437782
0.171031161058
0.167404146899
0.163732557857
0.160083873666
0.156513633099
0.153066146886
0.149775723912
0.146668115114
0.143761975029
0.141070220483
0.138601224344
0.136359822532
0.13434813702
0.132566231304
0.131012621044
0.129684664371
0.128578856802
0.127691054564
0.127016642243
0.126550631605
0.126287661965
0.126222031674
0.126348274467
0.126662529577
0.127163181639
0.127846555513
0.128705537035
0.129732462251
0.130919709917
0.132260459195
0.133748174005
0.13537650385
0.137139257742
0.139030394655
0.141044007717
0.143174291696
0.145415489522
0.147761814366
0.150207347383
0.152745912049
0.155370930412
0.158075268085
0.160851079468
0.163689665739
0.166581361299
0.169515463447
0.172480220412
0.175462888582
0.178449866181
0.181426902923
0.18437937844
0.187292632717
0.190152323967
0.192944780529
0.195657303908
0.198278367318
0.200797656551
0.203205892279
0.2054943126
0.207653664514
0.209672557995
0.211535196026
0.213218860291
0.214690876272
0.215902817329
0.21678354051
0.21725249528
0.217313694945
0.189982760252
0.189572329356
0.189107155746
0.188720740757
0.188135985636
0.187381561119
0.186186910299
0.184466426399
0.182233973548
0.179549695774
0.176498377997
0.173172464545
0.169663077094
0.166054245637
0.162419779029
0.158822030806
0.155311964616
0.151930017505
0.148707375899
0.145667393565
0.1428269792
0.140197856684
0.137787654013
0.135600810529
0.133639311841
0.131903271291
0.130391380283
0.129101250716
0.128029674193
0.127172822761
0.126526396608
0.126085664551
0.125845308136
0.125799412364
0.125943152773
0.126276271436
0.126795650071
0.127493420155
0.128362957866
0.129397758846
0.130591108422
0.131936407629
0.133427191681
0.135057142567
0.136820098092
0.138710055809
0.140721165218
0.142847702421
0.14508402224
0.147424484501
0.149863352747
0.152394666374
0.155012089984
0.157708747459
0.160477051597
0.163308543434
0.166193757158
0.169122127478
0.172081955587
0.175060447041
0.178043829663
0.181017553153
0.183966563291
0.186875635642
0.189729743506
0.192514428428
0.195216135835
0.197822457743
0.200322230086
0.202705467695
0.204962984525
0.207085589135
0.209062912898
0.210881742116
0.212523486393
0.213960801282
0.215155320064
0.216057578207
0.216597236478
0.216710717861
0.190679941776
0.190160923185
0.189477375166
0.188733004312
0.187783398573
0.18656981122
0.184981742555
0.18296712369
0.180529193607
0.177715035439
0.174596396166
0.171254106761
0.167768561114
0.1642139185
0.160655160218
0.157147049779
0.153734301546
0.150452435004
0.147328949082
0.144384579789
0.141634501842
0.139089402996
0.136756403322
0.134639817478
0.132741771687
0.131062692612
0.129601686431
0.128356828408
0.12732538892
0.126504016851
0.125888851445
0.125475457239
0.125258613413
0.125232742355
0.125394487634
0.125745517004
0.126281731789
0.126993511075
0.127874742429
0.128918880641
0.130119351039
0.131469641771
0.132963343082
0.134594176433
0.136356018842
0.138242919908
0.140249106223
0.142368967167
0.144597016609
0.146927825832
0.149355924889
0.151875671908
0.154481093444
0.157165702782
0.159922307578
0.162742821964
0.165618100896
0.168537815209
0.171490386587
0.174462998638
0.177441694422
0.180411565056
0.183357022654
0.186262145028
0.189111066714
0.191888381729
0.194579534221
0.19717113843
0.199651128701
0.202008852682
0.204234887272
0.206320388654
0.208256290902
0.210032160118
0.211633962152
0.213040945685
0.214224298228
0.215147090691
0.215739611671
0.215904274546
0.191340057938
0.19058769684
0.189609107302
0.188441107665
0.187044368132
0.185384204262
0.183401586151
0.181074307553
0.178414139716
0.175462641573
0.172279502436
0.168931848704
0.165486569725
0.162005487617
0.158542899972
0.155144740167
0.151848740704
0.148685140682
0.14567763138
0.142844353147
0.140198840515
0.137750866115
0.135507165657
0.133472043953
0.131647870651
0.130035477101
0.128634465993
0.127443450248
0.126460249988
0.125682059473
0.125105497723
0.124726383995
0.124539597439
0.124540607056
0.124728901823
0.125103901178
0.125659650468
0.126388223362
0.127283452995
0.128338938121
0.129548232181
0.130904900036
0.132402571782
0.134034990112
0.135796052304
0.137679844041
0.139680659948
0.141793004632
0.144011567612
0.146331166115
0.148746651107
0.15125277453
0.15384401933
0.156514398772
0.159257236597
0.162064944983
0.164928820569
0.167838878766
0.170783749198
0.173750654002
0.176725479603
0.179692954015
0.182636919252
0.185540691264
0.188387484591
0.19116085088
0.193845124759
0.196425873105
0.198890030026
0.201226169866
0.203424600127
0.205476727645
0.207374488721
0.209109706809
0.210672245395
0.212047182297
0.2132131845
0.214142885966
0.214767178964
0.214980115105
0.191574925511
0.190477081452
0.189198587896
0.187644130863
0.185837545168
0.183777167704
0.181444966621
0.17884202252
0.175988991554
0.17292453218
0.1696983566
0.166364626413
0.162976810617
0.159584348056
0.156230911002
0.152953803059
0.149784066751
0.146746976267
0.143862701519
0.141147015666
0.138611976187
0.136266544783
0.134117131345
0.132168058535
0.130421949471
0.128880043081
0.127542442623
0.126408310307
0.12547603703
0.124743391538
0.124207514341
0.123864575706
0.123709774898
0.123739833877
0.123956659828
0.124357466971
0.124934381463
0.125681197983
0.126591707622
0.127659617118
0.128878563973
0.130242163088
0.131744064466
0.133378013622
0.135137910264
0.137017860539
0.139012216871
0.141115598081
0.143322881708
0.14562916051
0.148029656366
0.150519587219
0.153093986717
0.155747482249
0.158474043171
0.16126671799
0.16411738579
0.167016542453
0.169953147382
0.172914566007
0.175886609069
0.178853701707
0.181799156986
0.184705551963
0.187555200608
0.190330636873
0.193015065314
0.195593080575
0.198050628556
0.200375441197
0.202557583
0.204588592369
0.206460966421
0.208168034336
0.209702367131
0.211053073013
0.212203209127
0.213133809994
0.213776578355
0.21403446582
0.190818114332
0.189554682168
0.18808652611
0.186238947701
0.184115833093
0.181743371908
0.179139556399
0.176325769911
0.173330724186
0.170191382603
0.166949656521
0.163648964642
0.160331362541
0.157035634957
0.153796279015
0.15064314056
0.1476014709
0.14469222315
0.141932468137
0.139335855895
0.136913078692
0.134672309358
0.132619599464
0.130759229066
0.129094004567
0.127625503998
0.126354271707
0.125279973177
0.124401534115
0.123717258629
0.123224786683
0.122920748283
0.122800908697
0.122862964039
0.123109769583
0.123537613888
0.124137433177
0.12490375823
0.125830628727
0.126911905883
0.128141307041
0.129512474131
0.131019047253
0.132654741715
0.13441342521
0.136289190678
0.138276418517
0.140369819781
0.142564450476
0.144855686483
0.147239149663
0.14971057786
0.152265635359
0.15489966859
0.157607419249
0.160382713682
0.16321816465
0.1661049055
0.169032373109
0.171988219526
0.174958304161
0.177926862151
0.180876781192
0.183789984653
0.186647963869
0.189432364855
0.192125248609
0.194710429351
0.197172958962
0.199499618861
0.201680293398
0.203706504253
0.205570856442
0.207267485453
0.208790463372
0.210131269272
0.211274485218
0.212208587577
0.212864546991
0.213164728286
0.189099721321
0.187800794424
0.186248804507
0.18421922786
0.181890284038
0.179309437473
0.176524563686
0.173574108183
0.170494491788
0.167322380913
0.164094277252
0.160845573436
0.15760953765
0.154416590775
0.151293907213
0.148265276603
0.145351150453
0.142568811066
0.139932617812
0.137454297731
0.135143254611
0.133006875756
0.131050820338
0.129279278181
0.127695192101
0.12630044056
0.125095982629
0.12408197644
0.123257885077
0.122622544826
0.122174085282
0.121909689515
0.121825960447
0.121921476455
0.122199057509
0.122654420751
0.123277865787
0.124064437662
0.125008405906
0.126103762886
0.127344280932
0.128723601072
0.130235322284
0.131873094798
0.133630715989
0.135502225212
0.137481991056
0.139564781617
0.141745805837
0.144020712422
0.146385533602
0.148836563441
0.151370161822
0.153982487272
0.156669174731
0.159424968122
0.162243366888
0.165116317443
0.168033897348
0.170984224598
0.173953368091
0.176925530942
0.179883339222
0.182808217802
0.185680954338
0.18848262135
0.191194101715
0.193798778228
0.196281001953
0.198626385053
0.20082476492
0.2028673626
0.204746444952
0.206456428742
0.207991705049
0.209344672227
0.210499023462
0.211448836519
0.212121175752
0.212463569752
0.186629991221
0.185347327823
0.183774151107
0.181655396057
0.179220622122
0.176527927765
0.173648147957
0.170632544788
0.167524182379
0.164360363918
0.16117428001
0.157995849472
0.154852090113
0.151767296518
0.148763131938
0.145858697051
0.143070612535
0.140413135818
0.13789831821
0.135536196629
0.133335006486
0.131301399463
0.129440651379
0.127756848978
0.126253048154
0.124931400006
0.123793249287
0.12283922087
0.122069295304
0.121482805976
0.121078270979
0.120853336556
0.120805768182
0.12093561203
0.12124439235
0.121727051583
0.122374134735
0.123181121107
0.124142473776
0.125252274393
0.126504314406
0.12789220012
0.12940945432
0.131049623291
0.13280639021
0.134673692263
0.136645835024
0.138717593561
0.140884286259
0.143141804172
0.145486578545
0.147915474894
0.150425595774
0.153013987769
0.155677290119
0.15841129911
0.161210540219
0.164067970515
0.166974467973
0.169918827528
0.172887511353
0.175864880536
0.178833520287
0.181774623492
0.184668401307
0.187495969036
0.190236898329
0.192874649617
0.195393161044
0.197776443566
0.200014897196
0.2020991078
0.204020549961
0.205773792548
0.207352394424
0.208747823109
0.209940639447
0.210927152749
0.211626953571
0.212015996123
0.18358429891
0.182346166941
0.180792457533
0.178654132968
0.176192658646
0.173467602523
0.170565883521
0.167546987636
0.164458973386
0.161340066731
0.158221656319
0.155130228784
0.1520886585
0.14911700415
0.146232964797
0.143452133273
0.140788152209
0.138252841645
0.135856333509
0.133607222844
0.13151273044
0.129578865106
0.12781057396
0.126211872125
0.124785946059
0.123535228168
0.122461451067
0.121565704456
0.120848483119
0.120309601862
0.11994788508
0.119761318884
0.119749278138
0.119914948784
0.120255221586
0.12076334867
0.121433582759
0.122260910367
0.123239799633
0.124364335332
0.125628285059
0.127025189944
0.128548466962
0.130191524029
0.131947887988
0.133811343238
0.135776074601
0.13783680265
0.13998889542
0.142228436019
0.144552219492
0.146957672051
0.149442665335
0.152005184025
0.154642963998
0.157352985029
0.160130887697
0.162970868488
0.165864723035
0.168802157608
0.17177022252
0.174753660226
0.177735294673
0.180696535009
0.18361703336
0.186478878938
0.189259919092
0.191944388636
0.194516354132
0.196957519438
0.19926112452
0.201416839852
0.203413872202
0.205247095685
0.206908298148
0.208385197516
0.20965304408
0.210705243867
0.211451587804
0.211898503873
0.180109686496
0.178937328479
0.177433544426
0.175327301415
0.17289835597
0.170202038816
0.167335733518
0.164363109074
0.161335513022
0.158291943363
0.155262910004
0.152272901252
0.149342203857
0.14648807785
0.143725465284
0.141067402586
0.138525272258
0.136108983269
0.133827127373
0.13168712848
0.129695385073
0.127857398797
0.12617788232
0.124660842238
0.123309634792
0.122126994946
0.121115050663
0.120275349214
0.119608877468
0.119115913266
0.118795629594
0.118646425992
0.118668827535
0.118867445368
0.119237606386
0.119771345516
0.120464415393
0.121311830732
0.122308126234
0.123447399752
0.124723387509
0.126129552663
0.127659188493
0.129305538867
0.131061938064
0.132921969227
0.134879636355
0.136929536656
0.139067014099
0.141288275878
0.143590422157
0.145971396623
0.148429847969
0.150964715736
0.153574889169
0.156258683064
0.15901282248
0.161833030614
0.164712045427
0.167640745761
0.170606986055
0.173596155302
0.176591583362
0.179575467294
0.182526550241
0.185428956761
0.188258193188
0.191000839227
0.193642367291
0.196160693764
0.198556936853
0.200818815749
0.202929230543
0.204883591055
0.206671059529
0.208273706036
0.209662274253
0.210821394341
0.211649072086
0.212176214997
0.176343324574
0.175249727426
0.173816627891
0.17177917588
0.169425015475
0.166801932215
0.164013543287
0.161124546134
0.1581881001
0.155243599498
0.152321139713
0.149444102252
0.146631224952
0.143897973137
0.141257411895
0.138720749264
0.136297689653
0.133996687586
0.131825149456
0.129789602223
0.127895832644
0.126148995232
0.124553687556
0.12311399383
0.121833499123
0.120715278838
0.119761877979
0.118975305267
0.118357019365
0.117907747651
0.117627102123
0.117514030237
0.117569767654
0.11779909872
0.118197356763
0.118756052994
0.119471342217
0.120338354271
0.121351689931
0.122505463161
0.123793381036
0.125208829819
0.126744975765
0.128394886834
0.130151680427
0.132008698549
0.13395970819
0.135999114195
0.138122153059
0.140325075259
0.142605210579
0.144960932196
0.147391662589
0.149897277518
0.152477794839
0.155133103744
0.15786075378
0.160658395962
0.163519612331
0.166436741059
0.169398662143
0.172391585826
0.175399363573
0.178405354422
0.181386833776
0.184331464055
0.187212406015
0.190021922992
0.192749273165
0.19536497286
0.197880668626
0.200279694462
0.202537648983
0.204651687095
0.206609014103
0.208388746306
0.209958037023
0.211282925333
0.212248864517
0.212893220729
0.172406969052
0.171397396679
0.170046764059
0.168102056662
0.16585073484
0.163331282862
0.160650397836
0.157871463769
0.15504825954
0.152220102993
0.149416820185
0.146661162164
0.143970945193
0.141360492091
0.138841601828
0.136424195493
0.134116765208
0.131926704954
0.129860564698
0.127924245407
0.126123141164
0.124462231645
0.12294612946
0.121579088773
0.120364982413
0.119307257192
0.118408884737
0.117672325234
0.117099472504
0.116691457835
0.116448357879
0.11636974472
0.116457354408
0.11671568574
0.117140543402
0.117723052905
0.118459562198
0.119345289204
0.120374890583
0.121542499923
0.122841805685
0.124266130647
0.125808525241
0.127461884914
0.129219100847
0.131073247191
0.133017805634
0.135046928681
0.137155657424
0.139340196691
0.141598034338
0.143927817855
0.146329736625
0.148804567566
0.151353251149
0.153977709556
0.156675714561
0.159447412525
0.162287020876
0.165188484272
0.168141790783
0.17113364602
0.174148325615
0.177170688093
0.180176990198
0.183162039011
0.186098959707
0.18898382294
0.191812670291
0.194549602523
0.197197577851
0.199744832937
0.20217961237
0.204494325106
0.206674591024
0.208695209886
0.210515432665
0.212076547304
0.213251609291
0.214057709412
0.16840074333
0.167475318781
0.166212337822
0.164374304898
0.162242575837
0.159845757361
0.157291321095
0.154639672372
0.15194428659
0.149243912991
0.146568054097
0.143939020321
0.141374039
0.138886684041
0.136487896281
0.13418670574
0.131990761777
0.12990673289
0.127940608232
0.126097915816
0.124383865962
0.122803428368
0.121361353363
0.120062148984
0.118910025372
0.117908821441
0.117061935798
0.11637226797
0.115842110623
0.115472909673
0.115265126744
0.115219088071
0.115337180073
0.11562300975
0.116072970016
0.116677897792
0.117434310746
0.118337499817
0.11938217133
0.120562486547
0.12187213408
0.123304398444
0.124852240013
0.126508401136
0.128265553873
0.130116496169
0.132054383938
0.134073078798
0.136167341105
0.13833322953
0.140568368127
0.142871423201
0.145243338125
0.147685811677
0.150200169568
0.152791206274
0.155455950547
0.158197633385
0.161010820747
0.163890524861
0.166827894211
0.169809381425
0.172820639397
0.17585116063
0.178877705564
0.181903140214
0.184911058235
0.187872391623
0.190786385471
0.193637059861
0.196421480654
0.199134173358
0.201769053403
0.204319775048
0.20677285179
0.209100543049
0.21125267959
0.213140873381
0.214618838912
0.215632570652
0.164403588294
0.163559396338
0.162384853241
0.160660072402
0.158656200245
0.156392236897
0.153974800492
0.151460212784
0.148900966472
0.14633478417
0.143790686507
0.141290556178
0.138851172606
0.136485579961
0.134204126973
0.132015241389
0.129926022615
0.12794269513
0.126070944938
0.124316151543
0.122683526516
0.12117817231
0.119805077745
0.11856906657
0.117474713644
0.116526248123
0.115727473699
0.11508170023
0.114591569928
0.114258695591
0.114083726427
0.114068132648
0.11421614183
0.114528554634
0.115001646428
0.115627258256
0.116401892756
0.117320881912
0.11837896435
0.119570335241
0.120888705673
0.122327354995
0.123879190667
0.125536835244
0.127292761464
0.129139508166
0.13106986309
0.133077392598
0.135156504795
0.137302969858
0.139514649924
0.141789847778
0.144130213821
0.146538593671
0.149015704655
0.151570410999
0.154197832996
0.156904244369
0.159684448888
0.162532982285
0.165443133346
0.168403531001
0.171401547295
0.174437865561
0.177492762013
0.180544485337
0.183587927371
0.186606950178
0.189595785629
0.192547460917
0.195461068205
0.198337447909
0.201177911093
0.20398211155
0.206741968058
0.209432648131
0.212000115374
0.214334365791
0.216260628418
0.217540651227
0.160476497461
0.159708843065
0.158620610213
0.157010429833
0.155136548772
0.153009150557
0.150732883819
0.148359327851
0.145939524358
0.143509778994
0.141098437981
0.138726876598
0.136411456555
0.134164803672
0.13199684697
0.12991562372
0.12792791401
0.126039728749
0.124256664885
0.122584138795
0.121027512053
0.119592128503
0.118283284558
0.117106153184
0.116065678092
0.115166460161
0.114412673165
0.113807995889
0.113355372726
0.113056489295
0.112912055134
0.112925014824
0.113102715612
0.113441001954
0.113934323471
0.114578537538
0.115369409846
0.116302187995
0.117371604925
0.118571893625
0.119896811976
0.121339672334
0.122893373633
0.124550465669
0.126303242514
0.128144043985
0.130065222847
0.132060087641
0.134122662955
0.136248176142
0.138435044765
0.140680721924
0.142987418966
0.14535968681
0.147796219293
0.150310976913
0.152896177178
0.155559687264
0.158297525416
0.161104221261
0.163975633489
0.166912383561
0.169899848274
0.172919270674
0.175965210611
0.179021607952
0.182079134145
0.185127950738
0.18816379012
0.191185825007
0.194198435815
0.197209850225
0.200230594003
0.203270009191
0.206330317408
0.209396434197
0.212419836334
0.215282178538
0.217775318978
0.219488764518
0.1566657525
0.155968948784
0.154962998548
0.153465133745
0.151719086323
0.149727283
0.147591657496
0.145358725316
0.143077781097
0.140783406451
0.138503092167
0.136257592474
0.134062828417
0.131931059108
0.129871907825
0.127893178544
0.126001512106
0.124202889064
0.122502986792
0.120907401676
0.119421754408
0.118051702471
0.116802886473
0.115680834006
0.114690839051
0.113837839697
0.113126332069
0.112560299844
0.112142937343
0.111876070198
0.111760639004
0.111800466212
0.112003547485
0.112365219233
0.112878257156
0.113539406213
0.1143444954
0.115288819232
0.11636715632
0.117573806707
0.118902604414
0.120346936032
0.121899735442
0.12355354793
0.125300480994
0.127132813776
0.129042337012
0.131022173237
0.133066032171
0.135168145581
0.137328079819
0.139541964732
0.141812196008
0.144145747517
0.146537675568
0.149007181135
0.151543571422
0.15415463787
0.156840105505
0.159601368569
0.162435974168
0.165325497667
0.168269844277
0.171253586462
0.174265998754
0.177294740915
0.180330719334
0.183367515396
0.186403653639
0.189442980953
0.192495459668
0.195576582715
0.198706244334
0.201904149485
0.205184265653
0.20854251457
0.211928108874
0.215173084625
0.2180099177
0.220213842615
0.15300565895
0.152373580236
0.151444733928
0.150054474659
0.148431212468
0.146570783197
0.144571926638
0.142476020081
0.140330449991
0.13816785267
0.136014719399
0.133891072178
0.131812352052
0.129790474158
0.12783483379
0.125953117496
0.124151961809
0.122437452105
0.120815465725
0.119291871653
0.117872609279
0.116563675387
0.115371049908
0.114300586296
0.113357885835
0.112548178559
0.111876240144
0.111346309933
0.110961807243
0.110724839697
0.110636867066
0.110702291468
0.110928513402
0.111311223343
0.111842051159
0.112518050426
0.11333508263
0.114288471972
0.115373040821
0.116583168892
0.117912781698
0.119355381494
0.120903959861
0.122551173559
0.124288845668
0.126109462781
0.128004033924
0.129965570431
0.131987739642
0.134063100518
0.136193133114
0.138372323
0.140602449262
0.142893433288
0.14523527935
0.147651449978
0.150132828189
0.152685331328
0.155321651119
0.158019056848
0.160788929536
0.163618003878
0.166498011462
0.169416434868
0.172361439557
0.17532171832
0.178288560831
0.18125694514
0.184227061051
0.187205284885
0.19020492342
0.193245796308
0.196353559248
0.199552926972
0.20286278579
0.206274073779
0.209678981609
0.212795539893
0.216066533027
0.220114069847
0.149520952338
0.148947404389
0.148089876201
0.146800992543
0.145293629667
0.14355819958
0.141689961573
0.139725256306
0.137709503987
0.135673254919
0.133641904544
0.131634653174
0.129666426647
0.127748807397
0.125891016995
0.124100706892
0.122384603072
0.120748984651
0.119200000146
0.117743836653
0.116386769485
0.115135125967
0.113995196508
0.11297311902
0.112074756508
0.111305591145
0.110670649297
0.110174389359
0.109820398791
0.109611108305
0.109548755724
0.109638278221
0.109885580326
0.110287228419
0.110833745663
0.111522359907
0.112348917458
0.11330873843
0.114396664935
0.115607164286
0.116934244891
0.118371581002
0.119912179846
0.121549030385
0.123273387375
0.125078392329
0.1269539808
0.128893078894
0.13088985651
0.132934382093
0.135030602318
0.13717121607
0.139356025774
0.141598390183
0.1438860697
0.146238870157
0.148670874318
0.151154315809
0.153714917002
0.156341364723
0.159031665781
0.161776344332
0.164564733917
0.167384108019
0.170221464474
0.17306471483
0.175904221137
0.178734133005
0.181553663152
0.18436800391
0.187188811084
0.190033297474
0.192923561502
0.195874931568
0.198894001794
0.201922891844
0.204693655843
0.207270460647
0.210575222646
0.21640386203
0.14622885589
0.14570781475
0.144915592235
0.143720996269
0.142321585971
0.140703452606
0.138958227827
0.137117438483
0.135224557038
0.133307978007
0.131391953456
0.129494801679
0.127630911441
0.125811540648
0.124045774584
0.122341283456
0.120704939527
0.119143262892
0.117662702062
0.116269768613
0.114971058364
0.113773196415
0.112682739997
0.111706063248
0.110849242791
0.110117971602
0.109517501315
0.109052478785
0.108726543529
0.108542339991
0.108503375914
0.108615959445
0.108882567952
0.109300923272
0.109860871933
0.110559738675
0.111393305073
0.112356835452
0.113445135012
0.114652780863
0.115973805954
0.117402165366
0.118930692079
0.120553116197
0.122259580971
0.124044515793
0.125896561383
0.127808426981
0.129775410678
0.131784197826
0.133841237028
0.135937826697
0.138071505023
0.140255935039
0.142496286371
0.144782285399
0.147135816418
0.149548053181
0.152025166092
0.154562254833
0.157153371274
0.159788492585
0.162454910952
0.165138045562
0.167822701781
0.170494357658
0.173140465044
0.175751591815
0.178322307809
0.180851573378
0.183342323263
0.185798937202
0.188224454504
0.190597510858
0.19289283779
0.194982265081
0.196445171058
0.196428915958
0.194703712374
0.196108209943
0.143140804916
0.142666552089
0.141933648793
0.140825865099
0.139525958874
0.138016702487
0.136386053938
0.134661028078
0.132883223063
0.131078866795
0.129271064414
0.127477220986
0.125711181833
0.12398388837
0.122304313617
0.120680175858
0.119118518484
0.117626114366
0.116209706012
0.114876105012
0.113632187675
0.112484826396
0.111440790137
0.110506634671
0.109688599431
0.108992544838
0.108423920211
0.107987538902
0.107686992238
0.107525004657
0.107507092887
0.107643113277
0.10792837463
0.10835956082
0.108930321943
0.109636967694
0.110474975089
0.111439471798
0.112525108653
0.113726652648
0.115037996911
0.116453604806
0.117965703242
0.119569435756
0.121253132222
0.123013168111
0.124836918669
0.126716321654
0.128648176652
0.130614962069
0.132625335894
0.134671627562
0.136754828555
0.13888143163
0.141050251029
0.143267347156
0.14553986285
0.147866299929
0.150246954721
0.152676927984
0.155147662718
0.157646847901
0.160159065802
0.162666726843
0.165151160799
0.167593709038
0.169976680434
0.172284014436
0.174501486003
0.176616192111
0.178614897513
0.180479791644
0.182181750524
0.183638192473
0.18477936728
0.185104288697
0.182906445603
0.175289179875
0.156039797997
0.0998131291953
0.140263817021
0.139831015542
0.139151636511
0.138123129637
0.136914170049
0.135505094432
0.133980214841
0.13236238275
0.13069143292
0.128991462255
0.12728446166
0.125586916897
0.123912137442
0.122270756482
0.120671647748
0.119122586836
0.117630787886
0.116203262135
0.114847016796
0.113569121789
0.112376684559
0.111276773226
0.110276319389
0.109382017368
0.108600234246
0.107936966556
0.1073978209
0.106987734213
0.106710287793
0.106568435114
0.106569316691
0.106724335246
0.107025991752
0.107468457691
0.108047987257
0.108760151844
0.109600084757
0.110562860964
0.111642774721
0.112834998306
0.114132943401
0.115532009735
0.117023179795
0.118603872759
0.12026008232
0.121990288806
0.123780797188
0.125621484074
0.127510939235
0.129430193709
0.131386261533
0.133384918039
0.135404554199
0.137463005345
0.139559550633
0.141697543428
0.14388084946
0.146108954986
0.148379039215
0.150684017572
0.153012470032
0.155348919547
0.157674418397
0.159967381992
0.162204474589
0.164361362141
0.166413145553
0.168334266012
0.170097631249
0.171672625582
0.173021596399
0.174094307109
0.174822576629
0.175104984267
0.174990214675
0.172727736773
0.16622815721
0.152779426066
0.125840608704
0.0748248427795
0.13760159015
0.137205312772
0.136573954777
0.135617349597
0.134490937789
0.133173380047
0.131745424168
0.130226129547
0.128653702272
0.127050178388
0.12543649492
0.12382823179
0.122238181185
0.120676676014
0.119152494737
0.117673463951
0.116246949692
0.114880169051
0.113580349618
0.112354767157
0.111210703792
0.110155366058
0.109195791212
0.108338755595
0.107590701179
0.106957711546
0.106445485505
0.106059022766
0.10580206449
0.105678292352
0.105696059312
0.105865713634
0.106180753733
0.106633163513
0.10721954542
0.107935064754
0.108774394584
0.10973282217
0.110803877081
0.111983563564
0.113264315021
0.114643102082
0.116109115882
0.117662590596
0.11928700301
0.120981891953
0.122732769705
0.124527284754
0.126363894196
0.128238766752
0.130136693544
0.132068589496
0.134024732672
0.13601002351
0.13802640854
0.140076194267
0.142160875556
0.144278518106
0.146423501137
0.148585700263
0.150750272481
0.15289794926
0.155005602075
0.157046934732
0.158993100231
0.160813021786
0.162473178482
0.163936562199
0.165160394125
0.166091943568
0.166661297253
0.166768785349
0.166262551865
0.164890891152
0.162220311833
0.157223050219
0.147960482028
0.132389969059
0.105905626159
0.0635254356158
0.135155346706
0.134791081338
0.134202590256
0.133310814068
0.132258883887
0.131024423866
0.129684739042
0.128255472948
0.126773351226
0.125258443152
0.123730711811
0.122204858566
0.12069318466
0.119205729702
0.117751173967
0.116337377471
0.114971826697
0.113661900409
0.112414992842
0.111238525917
0.110139893542
0.109126375815
0.108205048456
0.107382700395
0.106665783102
0.106060419973
0.105572354903
0.105206572466
0.104967070431
0.104858820944
0.104891528042
0.105073008411
0.105399050876
0.105859426842
0.106450610356
0.107167323949
0.108003368601
0.10895479652
0.110013739503
0.111177691878
0.112437707264
0.113792803485
0.115230151582
0.116752165499
0.118339652728
0.119991100771
0.121693356972
0.123438147609
0.125222073145
0.127035590904
0.128874710021
0.130738016279
0.132621612451
0.134526902562
0.136455475073
0.138408285402
0.140384520454
0.142379834512
0.144385496749
0.146387843549
0.14836816759
0.150303026535
0.152164767094
0.153922059869
0.155540222362
0.156981086812
0.15820213612
0.159154552745
0.159779661753
0.160002929069
0.159724062337
0.158800547433
0.157019645978
0.154048110407
0.14934536973
0.141961824182
0.130380768332
0.112692078458
0.0857441354251
0.0485900439367
0.132924497862
0.132588131646
0.132037726913
0.131204093397
0.130219016057
0.129059609382
0.1277998867
0.126452444125
0.125052681133
0.123618809407
0.12216991075
0.120719844028
0.119280450958
0.117861483491
0.116471515917
0.115118416763
0.11380975414
0.112553018272
0.111355712296
0.110225342319
0.109169349892
0.108195023019
0.107309409698
0.106519245206
0.105830931076
0.105250601702
0.104784037495
0.104436069332
0.104210751463
0.104114973951
0.104160910167
0.104351626337
0.104686683568
0.105152985189
0.105746714966
0.106462382893
0.107292187533