/*--------------------------------*- C++ -*----------------------------------*\
| =========                 |                                                 |
| \\      /  F ield         | OpenFOAM: The Open Source CFD Toolbox           |
|  \\    /   O peration     | Version:  v1806                                 |
|   \\  /    A nd           | Web:      www.OpenFOAM.com                      |
|    \\/     M anipulation  |                                                 |
\*---------------------------------------------------------------------------*/
FoamFile
{
    version     2.0;
    format      ascii;
    class       volScalarField;
    location    "900";
    object      pa;
}
// * * * * * * * * * * * * * * * * * * * * * * * * * * * * * * * * * * * * * //

dimensions      [0 2 -2 0 0 0 0];


internalField   nonuniform List<scalar> 
6400
(
0.934366115738
0.857609613843
0.699046563356
0.597472175659
0.597283081994
0.677564696183
0.84030147231
1.01417269902
1.17717038031
1.32974687428
1.46919010769
1.5900619875
1.68916437582
1.76620614551
1.82244322114
1.85972053537
1.88014110669
1.88592752303
1.87928238417
1.86226799423
1.83673595116
1.80430449693
1.76636239229
1.72408774897
1.67847230581
1.6303495325
1.58042187156
1.52928782385
1.47746659809
1.42542497848
1.37361205582
1.32253635194
1.27291496084
1.22585335693
1.18181455043
1.13486345132
1.0589840081
0.947683598455
0.807175614113
0.649483934556
0.48304786561
0.312098821658
0.138780240695
-0.0353166978142
-0.20871111984
-0.380038280968
-0.548063129794
-0.711641305252
-0.869675591603
-1.02109278412
-1.16483284023
-1.29984503224
-1.42508723715
-1.53953301614
-1.64218649019
-1.73210908101
-1.80845636397
-1.87052656369
-1.91781605092
-1.95007966958
-1.96738793089
-1.97017597011
-1.95927506975
-1.93592226926
-1.90174138814
-1.85869676665
-1.80901618932
-1.75509643072
-1.6993730659
-1.6442110167
-1.59168063921
-1.54353298987
-1.50055493542
-1.4632331298
-1.42900660142
-1.39812893503
-1.36065534193
-1.33389199899
-1.28836571142
-1.35158428382
0.714872440619
0.569921516615
0.494173299494
0.459427543534
0.554693395018
0.883784258099
1.32467863279
1.86695199112
2.50713060378
3.23007751861
4.01555934609
4.84294708877
5.69390771567
6.55318569132
7.40830250495
8.24913022921
9.06761266589
9.85752519813
10.6141985956
11.3342297518
12.0152191055
12.6555515613
13.2542172531
13.8106673544
14.3246977687
14.7963586881
15.2258836424
15.6136369294
15.9600743306
16.2657155799
16.5311255041
16.7568765943
16.9435696356
17.0922757272
17.2082899179
17.3121276543
17.4406471044
17.5731658595
17.679506775
17.7489916975
17.7807200251
17.7742614523
17.7282810043
17.6412513212
17.5118307336
17.3388719321
17.1213799483
16.8585257545
16.5496925617
16.1945261358
15.7929842365
15.3453892346
14.852488189
14.3155200416
13.7362891882
13.117240709
12.4615319037
11.7730899691
11.0566451067
10.3177253861
9.56260196505
8.79817464309
8.03179424074
7.27102399681
6.52335142172
5.79586723659
5.09493734289
4.42588550702
3.79272619135
3.19792262407
2.64229335783
2.12479266037
1.64292998534
1.1919714385
0.768052945543
0.362673747302
-0.0161876893546
-0.384868370058
-0.629071096931
-0.945070794911
0.559719366502
0.484624490936
0.505480143299
0.522702981098
0.601609489523
0.775414541883
1.01729493081
1.32076637571
1.67447313841
2.05996221838
2.45969524956
2.85951061076
3.24805091761
3.61650897359
3.95854251344
4.26994685343
4.54821892489
4.79216874743
5.00159666289
5.17701817443
5.31943586495
5.4301610765
5.51068227721
5.56257070816
5.58741583697
5.586782974
5.56218883663
5.51508905424
5.44687598247
5.35887850693
5.25237115773
5.12854210451
4.98836790921
4.83143796473
4.6522050461
4.43217359988
4.18249507212
3.9316709456
3.69193711596
3.46078653396
3.23642075385
3.01998545938
2.81351029639
2.61894247107
2.43804002487
2.27234923132
2.1231099091
1.99115954862
1.87687095723
1.78011548506
1.70023981619
1.63605479755
1.58583755013
1.54735049477
1.5178793248
1.4942947345
1.47314110366
1.45075680896
1.42342668314
1.38756552869
1.3399245953
1.27780916319
1.19928850631
1.10337740098
0.990167316298
0.860887965103
0.717890759377
0.564541128394
0.405050689071
0.244188717049
0.0870494289168
-0.061582709822
-0.197150112392
-0.317597267073
-0.419931812875
-0.511598458983
-0.577233806917
-0.653914162093
-0.553405593933
-0.7785349691
0.248542999521
0.440348065435
0.387754812462
0.368454196684
0.55555685106
0.825907213232
1.13173248059
1.48278928849
1.87564775859
2.29634378891
2.73398887996
3.18130314082
3.63208446074
4.08084724945
4.52324019014
4.95605025207
5.37692657775
5.78413408694
6.17639441002
6.55277109486
6.91257567755
7.25529599965
7.58054636641
7.88803605914
8.17754948558
8.44893506928
8.70209847688
8.93700007787
9.15364966748
9.35210450985
9.53243623734
9.69473508247
9.83900964159
9.96598147331
10.0781891337
10.18287294
10.2532730651
10.2860358337
10.2889281561
10.2622892085
10.2035972682
10.1118645038
9.98736053905
9.8306693801
9.64250908026
9.42387027
9.17610118737
8.90091571712
8.60038160068
8.27690488861
7.93320466466
7.5722713482
7.19730898669
6.81166082877
6.41871956683
6.02182188627
5.62413148164
5.22851539113
4.83742448792
4.45278999179
4.07595221199
3.70763524368
3.34798016065
2.99664075046
2.65294021272
2.31607440126
1.98534924299
1.66041795357
1.34153530282
1.02973033041
0.727124180651
0.436791238205
0.163745263636
-0.0871919208475
-0.305409213802
-0.490686770005
-0.606336811499
-0.701103147242
-0.484260653339
-0.773684670445
-0.235125372097
0.668558916942
0.438967127418
0.446691515598
0.823576702569
1.18704433416
1.4975944607
1.81522172294
2.15038722148
2.49374868136
2.84075420499
3.18956322612
3.537219365
3.87987727451
4.21385005722
4.53595986988
4.84349186326
5.13413059735
5.40594089711
5.65734957619
5.88711201776
6.09427145173
6.27812014496
6.43816430165
6.57409314295
6.68575106835
6.77311373491
6.83626623015
6.87538496908
6.89071652733
6.88256639675
6.85125526819
6.79711372942
6.72013147843
6.62032641539
6.5018877677
6.37838918578
6.25330609166
6.12943024886
6.0078739493
5.88810745032
5.76966622551
5.6524722954
5.53636181744
5.42084517844
5.30514279684
5.18826049755
5.06903401893
4.94617239904
4.81832162787
4.68414408246
4.54240510977
4.39205968791
4.23233488352
4.06280136942
3.88342740053
3.69460661632
3.49715296995
3.292256745
3.08140080051
2.86624068161
2.64845985515
2.42961712421
2.21100771238
1.99356118097
1.77779222975
1.5638224281
1.35145611511
1.14034774912
0.930138084608
0.720843472254
0.512729383377
0.307754583256
0.107115297826
-0.0802183678176
-0.258563266566
-0.381281449827
-0.520673874769
-0.259399554562
-0.72803462523
-0.588120341736
1.33517736348
0.725532203065
0.784173370381
1.27739138143
1.6283102127
1.87964270473
2.13397265065
2.40414667241
2.68279025751
2.96952009329
3.26512514425
3.56781729058
3.87431763081
4.18120102261
4.48532447256
4.78386366537
5.07432080608
5.35454430032
5.62272953891
5.87739612522
6.11735424821
6.34166972708
6.54963218247
6.74072696043
6.91461163753
7.07109667066
7.21013030224
7.33178688254
7.4362581239
7.52385122884
7.59499735207
7.65031977228
7.69068989851
7.71674074903
7.72234285229
7.7032068224
7.65939084811
7.59192331124
7.50186159555
7.38992322807
7.25696907701
7.10434861618
6.9337810108
6.74715366794
6.54642677323
6.33358193272
6.11055514138
5.8791605894
5.64102600071
5.39754894354
5.14987503528
4.89889955202
4.64529312411
4.38955150009
4.1320656916
3.87320675999
3.61341562524
3.35328647943
3.09362995059
2.83550358917
2.58019904302
2.32918302228
2.08399574919
1.8461234493
1.61686202334
1.39720916042
1.1877813388
0.988831170234
0.800230841635
0.62177242026
0.452818554814
0.293872458822
0.14317322843
0.00714471397836
-0.126964322988
-0.20805447952
-0.344563802736
0.0165378020261
-0.638260762184
-0.961202832959
2.30710109618
1.15230054295
1.26899935912
1.77472040529
2.02980675915
2.19181969287
2.37421298677
2.57922786879
2.7987554442
3.0331746261
3.28249152509
3.54390567962
3.81344135754
4.08710670112
4.36118155779
4.63224741681
4.89721099717
5.15332702843
5.39819964134
5.62976478783
5.84626362349
6.04621407865
6.22838347344
6.39176357386
6.53554829063
6.65911443296
6.762005042
6.84391544662
6.90468124987
6.94426841146
6.96276162865
6.96034529628
6.93733573629
6.89472029959
6.8376464596
6.76875581576
6.68930470169
6.60053908749
6.50344265205
6.39840991816
6.28540865376
6.16428296564
6.03486387625
5.8969641858
5.7503991248
5.59504212238
5.43087455334
5.25801297808
5.07671849806
4.88739260879
4.69056108795
4.48684770535
4.2769423718
4.06156939016
3.84146221472
3.6173502198
3.38996193027
3.16004623916
2.92840931088
2.69596107656
2.46375896073
2.23303632228
2.00520044093
1.78179637046
1.56442889285
1.35467376922
1.15395885808
0.963515540875
0.784254980331
0.617003244133
0.461932810951
0.320289372331
0.190051810548
0.0784172403135
-0.0322685807932
-0.0817661492727
-0.21583907755
0.274124977526
-0.562186964555
-1.34177824274
3.54775606824
1.6260952214
1.79483948425
2.21785289519
2.34014517883
2.42102147091
2.54901974907
2.7093651868
2.89244982554
3.09743703722
3.3222710473
3.56287525958
3.81474795406
4.07364509283
4.33566322799
4.59723350426
4.85513386158
5.10649801444
5.34880961668
5.57988538123
5.79785310569
6.00112827545
6.18839136676
6.35856685981
6.51080466345
6.64446417185
6.75910089789
6.85445620512
6.93044797908
6.98716865742
7.02487076203
7.0439883459
7.04498993567
7.02831308017
6.99278159526
6.93802681194
6.86471101431
6.7739415401
6.66699135808
6.5451281799
6.40960811264
6.26174383288
6.10289785652
5.9344021706
5.7574823331
5.57321874842
5.3825337164
5.18619310896
4.98482187032
4.77893349722
4.56896924015
4.35534068948
4.13846950996
3.91881934996
3.69691655221
3.47335840899
3.24881054749
3.02399788746
2.79969437861
2.57672060672
2.35594897224
2.13831957637
1.9248537676
1.71666569983
1.51494027295
1.32091286399
1.13578401921
0.960693207638
0.796558697326
0.644313893601
0.504159332549
0.377486809903
0.261716907299
0.164944467719
0.0651671484365
0.0332766189316
-0.116261314235
0.502094310255
-0.516059217116
-1.71833165211
5.02483834892
2.07942011968
2.3192768284
2.59756027465
2.59211218601
2.61621678917
2.70879784331
2.84057423799
3.0013866738
3.18845939551
3.39764307997
3.62389651208
3.86243071022
4.10891167044
4.35939061333
4.61026695735
4.85828151446
5.10050979868
5.33434972663
5.55750584538
5.76797184337
5.96401251848
6.14414617934
6.30712823962
6.45193645376
6.57775786438
6.68397767994
6.77016936806
6.83608721472
6.88165826254
6.90698204921
6.91233442682
6.8982656041
6.86585402034
6.81659558279
6.75140263421
6.67116984732
6.57684848228
6.4693362875
6.34942361541
6.21782397188
6.07524877237
5.92245854142
5.76026767548
5.58952690604
5.41110352689
5.22585998034
5.03462825635
4.83818439202
4.63723016357
4.43238702117
4.22420412734
4.01317978763
3.79979300919
3.5845401604
3.36796978754
3.1507091536
2.9334787023
2.71708955162
2.50243609854
2.29047850708
2.08223383543
1.87876135925
1.68117134231
1.49059497997
1.308200818
1.1351098808
0.972401624764
0.82091517763
0.681528040455
0.554221438166
0.440169643353
0.335883873121
0.249902819379
0.155572049249
0.133336012437
-0.0442483233845
0.698298197338
-0.493057670724
-2.05610038865
6.70322644596
2.45745983124
2.82363410236
2.92258956713
2.81721990038
2.80776065201
2.87748225197
2.99065033394
3.13742271236
3.31287409192
3.51119946156
3.72678792921
3.95476141092
4.19083515067
4.43115941817
4.67225160225
4.91096429042
5.14446228858
5.37020416173
5.58592700492
5.78963281799
5.97957572687
6.15425000484
6.3123790985
6.45290583205
6.57498363878
6.67796914777
6.76141511116
6.82506587083
6.8688514775
6.89289075759
6.89748445367
6.88310824338
6.85028007503
6.79923875927
6.7306131042
6.64530353246
6.54438466382
6.4290305573
6.30044928795
6.15984409842
6.00840121503
5.84728307958
5.67761295861
5.50045696223
5.31681291247
5.1276059977
4.93368643841
4.73582683517
4.53472018218
4.33098061829
4.12514903225
3.91770558805
3.70908953391
3.49972670096
3.29006084368
3.08058420284
2.87186505596
2.66455498817
2.45939946374
2.25722291417
2.05892780733
1.86546385182
1.67784978272
1.49711498328
1.32435657182
1.16061972783
1.006948449
0.864078482367
0.73286056535
0.613045777798
0.505467215327
0.405807980948
0.322997094355
0.226657664642
0.20376951601
-0.00672947216938
0.855580408369
-0.497446895393
-2.33133015249
8.52604672853
2.71857852524
3.31060084821
3.21194775844
3.04243226212
3.01421562928
3.0669102781
3.16638348022
3.302716094
3.46875140297
3.65746152945
3.8628939785
4.08015356095
4.30505952108
4.53392810784
4.76346444015
4.99069956069
5.21294976018
5.4277910289
5.6330429699
5.8267578619
6.00721229436
6.17290030565
6.3225273939
6.45500529594
6.56944686569
6.66516190529
6.74165113797
6.7986047138
6.83588847957
6.85355975197
6.85181879555
6.8312172077
6.79265307059
6.73666039755
6.66393949636
6.5753324392
6.47177480949
6.3542682432
6.22386340947
6.08164988826
5.928752374
5.76632436719
5.59553090727
5.41752232597
5.23340673306
5.04422642052
4.85093967799
4.65440856743
4.45539365471
4.25455597129
4.05246598876
3.84961974623
3.64645916876
3.44339845974
3.24085171499
3.0392581562
2.83911296303
2.6409627215
2.44543137517
2.2531959004
2.06500692079
1.88163080515
1.70391936182
1.53270311123
1.36887823834
1.21329433612
1.06682158322
0.929784991704
0.80289976532
0.685462782534
0.577409160771
0.473790468304
0.383403645362
0.276262534717
0.232826511836
0.00125842749197
0.973535363461
-0.555837871301
-2.52524397851
10.427387474
2.84313142438
3.79640927011
3.48100676801
3.28082114593
3.23916955398
3.27691468978
3.36524775818
3.49270265411
3.64997697218
3.82914906859
4.0240463214
4.2298097917
4.44242395046
4.65843922918
4.87481485113
5.08882263218
5.29798916809
5.50006353409
5.69300055807
5.87495262169
6.04426589997
6.19947867607
6.33932051408
6.46271163728
6.56876175045
6.65676910684
6.72621643202
6.77677201532
6.80827284958
6.82075254815
6.81436869021
6.78970145551
6.74739857272
6.68782096115
6.61163926778
6.51971890409
6.41304212072
6.2926726061
6.15973357818
6.01538847095
5.86082614785
5.69724942358
5.52586162123
5.34784842233
5.16435641046
4.97647081562
4.78519464366
4.59143119275
4.39597303038
4.19949915933
4.0025809384
3.80569949328
3.60926606727
3.41365209548
3.21921827854
3.02633504265
2.83542739417
2.6469419202
2.46139786597
2.27933160547
2.10136599593
1.92808294402
1.76013252643
1.5982287338
1.44289766191
1.29473849873
1.15448361136
1.02137187897
0.895608247812
0.775912792248
0.660326141838
0.544211961132
0.433810778683
0.306085338301
0.214578425807
0.00938361090719
1.05116755081
-0.706352912137
-2.62880772756
12.3395337888
2.83139972305
4.30060055883
3.73705875679
3.53581905459
3.47977265379
3.50415897037
3.58323809996
3.70259592457
3.85114160037
4.02030539949
4.20379725987
4.39687691194
4.59577300504
4.79733762673
4.99883815406
5.19783065292
5.39208791305
5.57956273599
5.75837196182
5.92679199173
6.08325994954
6.22637730003
6.35491396062
6.46781209093
6.56418862935
6.64333742752
6.70472760852
6.74800699457
6.77298421256
6.7796648614
6.76815957403
6.73910784674
6.69315430876
6.63064461664
6.55219552069
6.45861357354
6.35081338269
6.22979182117
6.09662239429
5.95244456708
5.79844756785
5.63585282549
5.465894836
5.28979906923
5.10875740495
4.92390274407
4.73628524051
4.54685115743
4.35642836496
4.16571970999
3.97530376106
3.78565358902
3.59715251092
3.4101281433
3.22488428409
3.04171104599
2.86096168905
2.68296658129
2.50814864885
2.33688657248
2.16967024856
2.00696603569
1.84903312591
1.69684305964
1.55023149694
1.40918403544
1.27468142485
1.14460514089
1.01739111128
0.890393436192
0.759623539211
0.621143865038
0.478011868111
0.316562187555
0.162854183767
0.0506772212747
1.02063197224
-0.923801753824
-2.64037356404
14.2019324432
2.70079810886
4.83916619941
3.97943020734
3.80561835532
3.73082798558
3.74446634597
3.81592360655
3.92766527747
4.0673170113
4.2258395227
4.39695638803
4.57616062178
4.76001584142
4.94574144018
5.13095836782
5.31353842017
5.4915235879
5.66308848793
5.82652761797
5.98025583614
6.12281508927
6.25288329125
6.36928330877
6.47099077376
6.55714035932
6.62703058348
6.68012590166
6.71606125999
6.7346321551
6.73582474205
6.71975080454
6.68702760093
6.63817113605
6.57347791202
6.49353249222
6.39912098464
6.29113363967
6.17053572958
6.03836670083
5.8957346701
5.74380371134
5.58377890558
5.41688942056
5.24436758182
5.06742353235
4.88721673438
4.70482890961
4.52123786723
4.33729935105
4.15373732538
3.97113625969
3.78996547427
3.61058396589
3.43328219917
3.25831601306
3.08589392293
2.91632328205
2.74981351516
2.58670552758
2.4272656385
2.2717669254
2.12093914189
1.97398210093
1.83257888617
1.69663396756
1.5643911278
1.43659195262
1.30964682361
1.17907763883
1.03920313401
0.884647031242
0.713320468911
0.527932617186
0.323052242912
0.123361533107
0.115750601457
0.822326471856
-1.15402940001
-2.56470900721
15.9655406722
2.47958050381
5.42006194687
4.2022269505
4.08719256291
3.98734889444
3.99419819278
4.05933608871
4.16384010315
4.29439607458
4.44163665708
4.59946610896
4.76373641074
4.93143373077
5.10020112625
5.2680462527
5.43317529141
5.593909982
5.74865344259
5.89588300189
6.03415701002
6.16212737481
6.27855371721
6.38231687132
6.47243041452
6.54805049477
6.60848280118
6.65318888619
6.68179052206
6.6940713797
6.69000697761
6.66974364346
6.63388288983
6.58279915858
6.51677013702
6.43634411282
6.34225580413
6.23533838826
6.11650187029
5.98673537486
5.84710271036
5.69873037706
5.54279374289
5.38050190139
5.21307847724
5.04173716075
4.86765080162
4.69192331287
4.51555758723
4.33943426977
4.16430086585
3.99074789428
3.81924881338
3.65014199242
3.48368637572
3.32010700542
3.15954539798
3.00227407548
2.84843741373
2.69828486767
2.55223461211
2.40983232302
2.27283068147
2.14048412536
2.01304550955
1.89108253092
1.77178531425
1.65327317555
1.52943200738
1.39262913243
1.23448774339
1.04997504547
0.841133550277
0.613845546316
0.36734409577
0.138872833204
0.147325306096
0.43324975297
-1.32763245582
-2.41066222593
17.5947038088
2.20084906109
6.04225109322
4.3979807908
4.37836138052
4.24500814281
4.25018383446
4.30980182012
4.40745650698
4.52874919886
4.66415752709
4.8079533343
4.95646276061
5.1071701047
5.25818579294
5.40792585485
5.55493990978
5.69783246984
5.83523563262
5.96580969995
6.0882570684
6.20134077155
6.30390368185
6.39488640291
6.47334208978
6.5384500696
6.58952368463
6.62602376402
6.64755097878
6.65388237066
6.64491244724
6.62093118584
6.58259286594
6.52996463073
6.46335966162
6.38332541866
6.29054519115
6.18578508845
6.06988876249
5.94378185255
5.80846787364
5.66501813182
5.51456050096
5.35826686383
5.19733609798
5.03297194479
4.86634831885
4.69858381624
4.53070185839
4.36360673011
4.19807748772
4.03471408406
3.87400693836
3.71628244217
3.56178824614
3.41070186135
3.26320409297
3.11949316753
2.97988981748
2.84417794098
2.71385699914
2.58854525464
2.46894693644
2.35553266996
2.24757529237
2.14457205304
2.0427190605
1.93654573539
1.81636262669
1.67162510885
1.4936524292
1.28072639425
1.03930111182
0.773193477162
0.474259679972
0.182061393936
0.0582682543721
-0.0836795623363
-1.36586382601
-2.1893969325
19.0666097822
1.89738517183
6.69684581301
4.56060349916
4.67818870151
4.49991030449
4.50962616416
4.56393397038
4.65523511499
4.76716002765
4.89033274344
5.01956570152
5.1517513664
5.2849319273
5.41771547232
5.54893827048
5.67749626948
5.80227568217
5.92213523859
6.03591588047
6.14246223735
6.24064691094
6.32939493882
6.40770581467
6.4746718001
6.52949492817
6.57149670918
6.60013674219
6.61499773854
6.61584886429
6.6025281845
6.57546565317
6.53529038548
6.48185508137
6.4154615341
6.33666116936
6.24609916313
6.14448021335
6.03258126957
5.91125939005
5.78144781163
5.6441487245
5.50042621788
5.35139815001
5.19822218314
5.04207983207
4.88413402488
4.72551259666
4.56725631558
4.41029418088
4.25544829389
4.10333183156
3.95447872065
3.80919260549
3.66779442891
3.53028603641
3.39732559411
3.26856260313
3.14544390086
3.02796366207
2.91658185751
2.81226079181
2.71522895936
2.62620094615
2.54429829635
2.46710777343
2.38802014701
2.29716363668
2.18150661258
2.02917973404
1.83280418726
1.5917733045
1.30741709644
0.969444678203
0.563932632681
0.144949069159
-0.173269553776
-0.550604942967
-1.24755484056
-1.91287504975
20.3695934261
1.59820545874
7.36953488593
4.68717816617
4.98639134766
4.74830737032
4.77005064761
4.81858872263
4.90420463087
5.00671629262
5.1174246236
5.23179684254
5.34735924018
5.46275574214
5.57710993699
5.68968366049
5.79971924047
5.90638266447
6.00875648634
6.10585955455
6.19667574339
6.28018401608
6.35538858145
6.42134514706
6.47718296235
6.52212518012
6.55550165666
6.57677114731
6.58550642204
6.58147200274
6.56448297342
6.53508696851
6.49377322534
6.4402925326
6.37490598355
6.29815804865
6.21066524068
6.11308098246
6.00612169673
5.89057823383
5.76731124367
5.63724639188
5.50137197292
5.36073713308
5.21644159287
5.06963405056
4.92145306726
4.77303319235
4.62543124221
4.47960109724
4.33642883537
4.19654460266
4.06057135729
3.92871586316
3.80174929436
3.67892013125
3.56238895513
3.45208094624
3.34798274893
3.25155568023
3.16314724236
3.0844681762
3.01645964916
2.95963333964
2.91162415015
2.8664970061
2.8128935319
2.73578697985
2.61852190364
2.44669836334
2.20976759273
1.90037538206
1.51067368222
1.0337054645
0.494571116974
-0.00865505930672
-0.392029231943
-0.735709920219
-1.01777851868
-1.59288074431
21.5008709393
1.32666038523
8.04327357767
4.77850068414
5.30242727464
4.98658373246
5.02933587334
5.07085098881
5.15167612994
5.24476756571
5.34296684081
5.44240094706
5.54128232368
5.63888495574
5.73485589242
5.82888433934
5.92055893103
6.00932412359
6.09448414855
6.1752328777
6.25068922476
6.31993332502
6.38204379421
6.43612805823
6.48134890786
6.51694782519
6.54226256112
6.55675176397
6.55998964156
6.55173750627
6.53182674469
6.50082794686
6.45907160644
6.40627464104
6.34267241316
6.26879317689
6.18521841725
6.09254723468
5.99143311118
5.88259943185
5.7668331969
5.64498120788
5.51795018276
5.38671244944
5.25229470359
5.11580807149
4.97835470779
4.84107400285
4.70504135456
4.57125271742
4.44065965017
4.31391658815
4.19193567294
4.07448146261
3.96340387958
3.85841663841
3.76038801583
3.67017774156
3.58785979731
3.51572802406
3.45538812802
3.40931082012
3.3784273525
3.36146719997
3.35198153168
3.33762109415
3.29933504776
3.21411257152
3.05783849499
2.80882778387
2.45063866735
1.97661372425
1.39778295498
0.757787653934
0.150833303625
-0.307554024976
-0.593754079933
-0.781604334679
-0.875813810555
-1.24039120955
22.464263086
1.09980800668
8.70068604271
4.83869757841
5.6247467235
5.21149061447
5.28570365381
5.31800520799
5.39522098042
5.47889054592
5.56471768217
5.64933130047
5.73168492765
5.81169526592
5.88953382764
5.96531818523
6.0389841234
6.1102542531
6.17865262546
6.24354453594
6.30417737739
6.35972500764
6.40933396556
6.45215757573
6.48738790974
6.51428069296
6.53217951589
6.54054073305
6.53894733481
6.52716765718
6.50511235343
6.47327310253
6.43180156436
6.38042868132
6.31938214214
6.24916629085
6.17032320516
6.08339926504
5.98898430103
5.88773055279
5.78034661962
5.66759689927
5.55030099358
5.42935065519
5.30568784046
5.18038558209
5.05449850992
4.92918438584
4.80551836194
4.68459900611
4.56745809421
4.45480866371
4.34801435916
4.24748574578
4.15422868686
4.06820316132
3.99022793755
3.92183608246
3.86466742114
3.82207076741
3.79666031006
3.79070969523
3.80294848699
3.82690057525
3.84765112514
3.8416116051
3.77727671999
3.61971128765
3.33604794625
2.90342068864
2.31921180175
1.61322132157
0.85582163668
0.153734851948
-0.378818681438
-0.686480158938
-0.827984874634
-0.886929508855
-0.912717880417
-0.865267711609
23.2681361304
0.92864557339
9.32586471592
4.87430324854
5.95041765153
5.42048059779
5.53762404964
5.55752284416
5.63266475228
5.70687147035
5.78063748193
5.85071040194
5.91686816087
5.97966429161
6.03979247619
6.09779996523
6.15397147374
6.20830740665
6.26054935031
6.31022823116
6.35671002021
6.39925267013
6.43706329674
6.46933497084
6.49528518147
6.51417932893
6.52536509066
6.52828582326
6.5225335906
6.50784730039
6.48429728265
6.4523719881
6.41192307581
6.36275717039
6.30510119425
6.23939727678
6.16612268185
6.08576945442
5.99886908211
5.90600703219
5.8078123431
5.70496562475
5.59819555672
5.48831288329
5.37615784786
5.2627832549
5.1491841781
5.03656123003
4.92592844784
4.81880314973
4.71601556308
4.61934737201
4.52981731229
4.44708034295
4.37231643944
4.30596998706
4.24986113078
4.2067065
4.17969446603
4.17290790952
4.18864346616
4.22632890846
4.27833895466
4.32760284193
4.34510576693
4.29164698709
4.12241766411
3.79655650942
3.28931033231
2.60652653452
1.79684228459
0.953686141902
0.196965704134
-0.367323241828
-0.696224411512
-0.83429649043
-0.867066189156
-0.827915912362
-0.714342774912
-0.476128224426
23.9237107178
0.818852092592
9.90550875025
4.89315467529
6.27514568433
5.6119863256
5.78364989068
5.78708466501
5.86208101939
5.92669367216
5.98887588341
6.04481461299
6.09525680736
6.14136241059
6.18434525696
6.22518399444
6.26451361514
6.30261080063
6.33943085027
6.37466090098
6.40777156949
6.43809437107
6.46488986379
6.48738585812
6.50482258522
6.51647298961
6.52168903445
6.519894291
6.51069580539
6.49371509853
6.46931890771
6.43805699127
6.39935634099
6.35313883797
6.29966384997
6.23929581881
6.17241683688
6.09944607788
6.02084697269
5.93713803576
5.84886977694
5.75664061376
5.6610788485
5.56292652722
5.46292394803
5.3620906364
5.26136508003
5.16219510931
5.06521880549
4.97314928035
4.88694259972
4.80714051801
4.73505301421
4.67041561863
4.614866825
4.57000464767
4.53892180179
4.52558064662
4.53406272995
4.56770426959
4.62554276094
4.69960314268
4.77027889864
4.80461321158
4.75691401075
4.57556890326
4.21458266854
3.64991955729
2.89560342952
2.01412874598
1.11214622503
0.315208957869
-0.275254250969
-0.623939340161
-0.774778839326
-0.812317147103
-0.784033763456
-0.674542149297
-0.499214412691
-0.0803659186582
24.4437331211
0.771764343109
10.4294626134
4.90335541867
6.59359151096
5.78554795679
6.0222396937
6.00464207147
6.08177539597
6.13653158076
6.18776702074
6.23006917427
6.26539880077
6.29545642154
6.3219789167
6.34637675889
6.36963466383
6.39230179059
6.41454120098
6.43618157865
6.45678108473
6.47573537387
6.49235277128
6.50589258487
6.51561632095
6.52080548242
6.52081740413
6.51507549404
6.5031928435
6.48479066272
6.46039353289
6.43043415293
6.39420315093
6.35162894409
6.30300532752
6.24865781419
6.18888239231
6.12401515019
6.05443094173
5.98056786694
5.90288023584
5.82189045054
5.73812689109
5.65223426749
5.56489323686
5.47714677658
5.38984287039
5.30486870607
5.22347122836
5.14750357326
5.07796500499
5.01525753378
4.96071731835
4.91495431248
4.88036491971
4.85983214861
4.85763457916
4.87840374061
4.92545904654
4.99835799328
5.08830898287
5.17458633458
5.22122505876
5.17871809002
4.99083530874
4.60872170478
4.00873580456
3.2098551265
2.28190252227
1.33728756454
0.502402651968
-0.123980100625
-0.506489412666
-0.681560115879
-0.729589274388
-0.720444056083
-0.665392999577
-0.536324405566
-0.373043067973
0.315771184195
24.8414955807
0.785400943326
10.8907907935
4.91245660356
6.89985374446
5.94176653412
6.25162902499
6.20849782095
6.29025271307
6.33475189553
6.37582674026
6.40504793073
6.42596973859
6.44071791138
6.45156550712
6.46035129006
6.46840570719
6.47654433369
6.48512915123
6.4941096941
6.50311388461
6.51159581267
6.51890773164
6.52433858617
6.52716926985
6.52669095152
6.52227464408
6.51336142434
6.49958455462
6.48061230808
6.45702254203
6.42908573512
6.39607073412
6.35787503045
6.31478690423
6.26710349725
6.2150571796
6.15891837344
6.09895797643
6.03553366206
5.96899647532
5.89975537618
5.8282586785
5.75500340222
5.68090041481
5.60666463158
5.53400280198
5.46440074192
5.39878375
5.33903971905
5.28607730667
5.24075653412
5.20464649586
5.17930531379
5.16806851962
5.17500998389
5.20497620357
5.26165649278
5.34459134482
5.44526547332
5.54222905302
5.59858036787
5.56266971673
5.37599123243
4.98744019636
4.3726088083
3.55107496243
2.59407274293
1.61444551155
0.737694442962
0.0622597970117
-0.372706103522
-0.593975685838
-0.671133736977
-0.677603575835
-0.654310491793
-0.593454531695
-0.469929131209
-0.32970633279
0.707022048575
25.130125871
0.855428499564
11.2855389917
4.92691970718
7.18799445259
6.08211268796
6.46978640879
6.3973747506
6.48617143627
6.51992246726
6.55174845339
6.56847542327
6.5757792393
6.57603251789
6.57207428642
6.56615991668
6.55995793937
6.55454245555
6.55046181315
6.54775965929
6.54611941457
6.54505275086
6.5439530386
6.54213666546
6.53889832778
6.53353993817
6.52545105474
6.51411563238
6.49922486112
6.4805520234
6.45852176953
6.43331066354
6.40422506095
6.37113333967
6.33428576154
6.29393006765
6.2502164181
6.20337675105
6.15358796147
6.10109577
6.04615679804
5.98904542868
5.93036128602
5.86994455988
5.80976177139
5.75030236415
5.6923283679
5.63798034061
5.58815865154
5.54476529879
5.50886486017
5.48174877031
5.46539730238
5.46238783691
5.47696816152
5.51378938904
5.57672171851
5.665708694
5.77254823472
5.87645120884
5.94061135977
5.91334071301
5.73507808604
5.35312530715
4.74061467858
3.91431943259
2.9421664085
1.93388449439
1.01332108221
0.281090890495
-0.216332342977
-0.49470744411
-0.613097673214
-0.640837821673
-0.629766155714
-0.599837214685
-0.538307412573
-0.426433760219
-0.305756970551
1.088927959
25.3221215543
0.976036162397
11.6123246382
4.95185157917
7.45250530917
6.20863783622
6.67445480448
6.57044352767
6.66829702918
6.69082657317
6.71439543964
6.71923072462
6.71377668196
6.70040829446
6.68258152792
6.66294423492
6.64349257808
6.6255502714
6.60983419959
6.59645155375
6.58513489049
6.57545634277
6.56684729288
6.55864747186
6.55015595696
6.54068386871
6.52963613779
6.51658098019
6.501254415
6.48356822977
6.46390541305
6.44222728947
6.41787094166
6.39063569321
6.36070444422
6.32829573084
6.29349146919
6.25645406022
6.21727861889
6.17610659836
6.13326979429
6.08846546986
6.04295369597
5.99659702965
5.95026847693
5.90516798387
5.8619765644
5.82288929158
5.78913890138
5.76262683613
5.74457752001
5.7367081606
5.74159322324
5.76276286454
5.80485040881
5.8716349334
5.96346924477
6.07303237117
6.18069957752
6.25125739918
6.23411850733
6.07012950189
5.70515348456