/*--------------------------------*- C++ -*----------------------------------*\
| =========                 |                                                 |
| \\      /  F ield         | OpenFOAM: The Open Source CFD Toolbox           |
|  \\    /   O peration     | Version:  v1806                                 |
|   \\  /    A nd           | Web:      www.OpenFOAM.com                      |
|    \\/     M anipulation  |                                                 |
\*---------------------------------------------------------------------------*/
FoamFile
{
    version     2.0;
    format      ascii;
    class       volScalarField;
    location    "900";
    object      pa;
}
// * * * * * * * * * * * * * * * * * * * * * * * * * * * * * * * * * * * * * //

dimensions      [0 2 -2 0 0 0 0];


internalField   nonuniform List<scalar> 
6400
(
0.167620466088
0.161367610473
0.157430682283
0.157809870675
0.195571284615
0.238553868619
0.293108852573
0.371871920431
0.467109547862
0.562903284235
0.649230615675
0.722865416764
0.783384148927
0.830913609155
0.865873064501
0.889138826786
0.901959148594
0.905731040147
0.901828851465
0.891523930721
0.875955361247
0.856121524997
0.832880981237
0.806961955476
0.778976717235
0.749439045438
0.718781233882
0.687370820838
0.655525869494
0.623531634444
0.591662670395
0.560231699802
0.529684938041
0.500705048601
0.473512481549
0.44408356668
0.39562861476
0.325971754951
0.239562773294
0.143396076492
0.0422486625615
-0.0614783253183
-0.166535204591
-0.271973061919
-0.376905669754
-0.480513940269
-0.582051046087
-0.680818413864
-0.776140260098
-0.867350238435
-0.953785360589
-1.03478429044
-1.10968812184
-1.17784638838
-1.23862850622
-1.291442832
-1.33576231196
-1.37115715555
-1.39733156664
-1.41416255714
-1.42173575184
-1.42037449499
-1.41065663196
-1.39341609478
-1.36972572184
-1.34086245057
-1.30825354167
-1.27341233363
-1.2378533958
-1.20301945297
-1.17013991996
-1.14020294272
-1.11356010244
-1.09029162705
-1.06859108838
-1.04820800579
-1.02291532929
-1.0023424415
-0.969047377351
-0.997182722604
0.108892885711
0.0821648091149
0.0933025624672
0.128568754445
0.211351078733
0.39412422807
0.631109070168
0.939908564649
1.32231504089
1.76098855303
2.23782908125
2.73963897933
3.25614715011
3.77830305981
4.29819594354
4.80935791112
5.30676512979
5.78660959346
6.24604954513
6.68301362905
7.09604686883
7.48418032988
7.84681933916
8.18365212155
8.49457696167
8.77964618359
9.03902244274
9.27294621391
9.48171157109
9.66564912691
9.82511443538
9.96046401547
10.0720705625
10.1606226582
10.2295825992
10.292134698
10.3701161163
10.448156205
10.5088963078
10.546705788
10.561212048
10.5521524263
10.5187334653
10.4600662724
10.3753742086
10.2639921605
10.1253435901
9.95895153441
9.76446835873
9.54170793937
9.29067803124
9.01161538731
8.70502592492
8.37172957912
8.01290879234
7.63015741995
7.22552582036
6.80155547713
6.36129565825
5.90829363516
5.44655108103
4.98044127901
4.51458570091
4.05369316867
3.60237023271
3.16491516878
2.74511269094
2.34604161615
1.96991952263
1.61796958242
1.29038021668
0.986200263773
0.703614496716
0.439530372872
0.19145623074
-0.0455619969698
-0.266613607734
-0.480268143276
-0.618276050974
-0.788060165443
0.0177633351136
0.0457895086986
0.0786230780734
0.132126326754
0.213261963479
0.320048510924
0.458093298198
0.635860593062
0.849719784159
1.08580514109
1.33060328495
1.5747270237
1.81157388268
2.03599632893
2.24406765848
2.43312763249
2.60164461696
2.74895124618
2.87499541333
2.98015317507
3.06509124595
3.13066137464
3.1778196723
3.20756757568
3.22091170574
3.21883801549
3.20229709484
3.17219668285
3.1294005063
3.07472800198
3.00896085092
2.93282056569
2.84688821804
2.75081245382
2.64090095437
2.50529712914
2.3541539225
2.20390057134
2.06026727451
1.9216246841
1.78710852986
1.65746894502
1.53389601927
1.4175214071
1.30936803642
1.21033019916
1.12111415642
1.04218146021
0.973712156294
0.915582393934
0.867349812082
0.828246314354
0.797179313083
0.772743888474
0.753247509901
0.736750485175
0.721124389679
0.704131148192
0.683522801246
0.657160336615
0.623145641196
0.579957767358
0.526580805951
0.462609424662
0.388318353817
0.304684361749
0.213356777182
0.116571157651
0.0170259773762
-0.0823104708729
-0.178358768326
-0.268320233138
-0.34965787404
-0.421445719914
-0.482403019107
-0.53748084675
-0.578485520309
-0.62729364097
-0.572096865274
-0.695368312833
-0.183968424609
0.0385194221458
0.0182111019519
0.0244172055457
0.156616394686
0.322356908712
0.501363325601
0.708068162304
0.942445168741
1.19497366419
1.45765979375
1.72551738523
1.99487920692
2.26263095456
2.52622877992
2.78375524438
3.03383236433
3.27548180005
3.50800599053
3.73090493345
3.943818608
4.14648624728
4.33871731986
4.52037240767
4.69135120765
4.85158616043
5.00103883663
5.13969879061
5.26758047318
5.38472202058
5.49116400165
5.58695371912
5.67209093256
5.74706679093
5.81353989245
5.87539965293
5.91558767091
5.93358221134
5.93391495498
5.91652482837
5.87992012549
5.82356186451
5.74761297748
5.6524083271
5.53837022212
5.40609113673
5.25638082855
5.09027061527
4.90900727157
4.71404434044
4.5070269785
4.28976641118
4.06420411158
3.83236517078
3.59630158018
3.3580254978
3.11943535557
2.88223857127
2.6478781627
2.41747143067
2.19177094781
1.97115644835
1.75566451575
1.54505735061
1.3389275429
1.13682801413
0.938417322184
0.743598598318
0.552661525691
0.366369760594
0.186127255625
0.0138772255357
-0.147356189292
-0.294749713975
-0.422273369131
-0.530183794317
-0.597740796039
-0.654054542673
-0.527173797005
-0.68483466456
-0.433714319445
0.196780114352
0.0376776811753
0.0565664483235
0.300071093184
0.523681977034
0.710218037153
0.900308282518
1.10104300099
1.30649761022
1.51355784267
1.72098656406
1.9271378045
2.12990715766
2.32722128277
2.51724485837
2.6983993001
2.86934712688
3.02897778848
3.17639079442
3.31087523121
3.43188761934
3.53903024345
3.6320305818
3.71072280709
3.77503117546
3.82495574369
3.8605593148
3.88195626313
3.88929967918
3.88277224829
3.86255822222
3.82881751768
3.78147160511
3.7204767808
3.64987042911
3.57643137393
3.50213724421
3.4287928096
3.35697777538
3.28631583633
3.21652279716
3.14753859169
3.07923534327
3.01128688127
2.9431954553
2.8743359686
2.80398207413
2.73133305562
2.65555326798
2.57582103056
2.49138182695
2.40160164961
2.30601766407
2.20438188491
2.09669343079
1.98321390125
1.86446157221
1.74118096811
1.61428766076
1.48479146305
1.3537059583
1.22195593446
1.09029670131
0.959259323759
0.829131029737
0.699979151717
0.571706916506
0.444160123681
0.317209763129
0.190974240709
0.0657389633484
-0.0572188305612
-0.177084657603
-0.288579654672
-0.394314206439
-0.467258659108
-0.550155936741
-0.395723504013
-0.654284431745
-0.61373920533
0.607183397923
0.214823075706
0.26611264843
0.572131659187
0.783716940622
0.933299646337
1.08380757695
1.24301889115
1.40671647558
1.57481513011
1.7478680234
1.92491711808
2.10413056467
2.2835520837
2.46134643104
2.63584519844
2.80557155739
2.96925690616
3.12583972625
3.27445117825
3.41439562812
3.54513027347
3.66624594508
3.777449824
3.87855089279
3.96944800959
4.05012051809
4.12062115411
4.1810701584
4.23165530892
4.27263401993
4.30438752401
4.32743354929
4.34219106475
4.34451280363
4.33220207752
4.30541590959
4.26481896809
4.21100753422
4.14436562419
4.06539517849
3.97489891999
3.87389153177
3.76348125949
3.64481741547
3.51906031203
3.38734053647
3.25071344581
3.11012117678
2.96636735559
2.82010505741
2.67183900153
2.52194249541
2.37068900783
2.21829604033
2.06497751228
1.91099853753
1.75672524596
1.60266087066
1.44946025492
1.29791687276
1.14892130501
1.00339528415
0.862212155101
0.726116628908
0.595664426113
0.471181414392
0.352784903019
0.240382427926
0.133850541339
0.0328370263404
-0.0623265074967
-0.152622318342
-0.234278369136
-0.314820467341
-0.364486712195
-0.447413417652
-0.236107078941
-0.602033278948
-0.829650034416
1.19534527662
0.476603569733
0.5614483004
0.868026075893
1.01862649792
1.1130449618
1.21878171823
1.33717201444
1.46387574531
1.59943644491
1.74396927562
1.89585103744
2.05274372372
2.21227869289
2.37222584296
2.5305242729
2.68530942775
2.83493161178
2.9779562019
3.11315155166
3.23947211622
3.35604072299
3.46213131625
3.55715306292
3.64063616321
3.71221965976
3.77164103688
3.81872754407
3.85338931712
3.87561381669
3.88546362111
3.88307108711
3.86868954156
3.84298894768
3.80884899077
3.76782235812
3.7206989851
3.66821684848
3.61092596458
3.54902311254
3.48246760106
3.41115581518
3.33497670525
3.25380717861
3.16752675366
3.07605158106
2.97936331505
2.87752447236
2.77068340434
2.65907132854
2.54299221999
2.42280675578
2.29891317426
2.17172858241
2.04167462374
1.90917092688
1.77463895922
1.63851719552
1.50128558014
1.36349452031
1.22579068057
1.08893096303
0.953777066348
0.821267221668
0.692365541391
0.568004076944
0.449011528833
0.336089776378
0.229745939701
0.130430131397
0.0382111130746
-0.0462060737517
-0.124016757259
-0.191051174973
-0.257765778633
-0.28915524595
-0.371706318031
-0.0871772443778
-0.558451639865
-1.0503280221
1.94496785132
0.772818775205
0.88742570445
1.1374042051
1.20401992155
1.24634112181
1.31642733242
1.40574019009
1.50907547332
1.62610936881
1.75557031904
1.89492594303
2.0413931937
2.1923538325
2.34540365298
2.49835165004
2.64923034741
2.79630105421
2.93804756618
3.07316270271
3.20053241737
3.31921969872
3.42844923521
3.52759335643
3.61615969302
3.69378071955
3.76020514014
3.81529144317
3.85900244405
3.89140479574
3.91266113089
3.92304128759
3.92281737644
3.9121971833
3.89046022178
3.85747343883
3.81366648147
3.75970308406
3.69633204627
3.62429379038
3.5443227782
3.45718786651
3.36368452022
3.26458582887
3.16059893993
3.0523437217
2.94034603797
2.82503947919
2.706775389
2.58584112108
2.4624838177
2.33693582443
2.20943801405
2.08025801501
1.94970140838
1.81811541873
1.68588633776
1.55343435405
1.42120894138
1.28968890071
1.15938802324
1.03086503989
0.904733442937
0.78166411616
0.662372687286
0.547599514398
0.438054921516
0.334403430156
0.237170700203
0.146878484181
0.0636024453347
-0.011880445749
-0.0810913024571
-0.139328041511
-0.199559276023
-0.220676957609
-0.312805907811
0.0443899929391
-0.53229421801
-1.27258656277
2.83580376605
1.05869637103
1.21218024141
1.36780868672
1.35313216362
1.35766974624
1.40388943121
1.47470305189
1.56423910678
1.67065783004
1.79119420922
1.92257666005
2.0617389593
2.20593941065
2.35270996859
2.49982524944
2.64529168502
2.78733773227
2.92440104558
3.0551142141
3.17829049952
3.29291020518
3.3981079937
3.4931613952
3.57748070498
3.65060023528
3.71217109026
3.76195482397
3.79981910395
3.82573242511
3.83976513428
3.84208952652
3.833050926
3.81331764778
3.7837306861
3.74480448672
3.69707460428
3.64110984258
3.57744089086
3.50653196301
3.42880295255
3.34467484575
3.25459824802
3.15905428639
3.05854350437
2.95357396477
2.84464831292
2.73224847597
2.61682081755
2.49876600703
2.37843646793
2.25614235494
2.13216545433
2.00677874347
1.8802682341
1.75295305487
1.62519944408
1.49742847755
1.37011503288
1.24378195245
1.11899163882
0.996338857467
0.876448114188
0.759972219552
0.647584674783
0.539977734914
0.437812398421
0.341712857864
0.252153253319
0.169629444455
0.0940567964311
0.0260544963043
-0.0364148788851
-0.0883660764148
-0.14535317924
-0.16091206767
-0.26961920011
0.157000211932
-0.520388305311
-1.47203120117
3.84896007005
1.30263481179
1.52477522822
1.56464415558
1.48525361671
1.46624298063
1.49696799678
1.55618091957
1.63760077384
1.73768604872
1.85245612783
1.97817920142
2.11167516983
2.25020719337
2.39136333954
2.53299673836
2.67319288053
2.81024642364
2.9426432071
3.069045864
3.18828174733
3.2993324431
3.40132454185
3.49352155363
3.57531693781
3.64622804072
3.70589119906
3.75405698231
3.7905878558
3.81545293438
3.82873401087
3.83060974815
3.82138663602
3.80134567596
3.7706153108
3.72958994119
3.67881515397
3.61893332252
3.5506393983
3.4746439135
3.39165269509
3.30236127265
3.20745096329
3.10757939901
3.0033698982
2.89540506406
2.78422417614
2.6703215232
2.55414452954
2.43609243283
2.31651686274
2.19572557992
2.07399071835
1.95156144136
1.82868054532
1.70560335348
1.58261362168
1.46003970018
1.33826178714
1.21771430742
1.09888121644
0.982287328868
0.868493401281
0.758091253837
0.651693840102
0.549949134692
0.453486483399
0.362894703405
0.278569041809
0.201032022876
0.129990114953
0.0657987959506
0.00597037408515
-0.0442721902654
-0.102329581779
-0.118608446064
-0.245416154562
0.246640802214
-0.526054084548
-1.63522873085
4.95029291221
1.47848693568
1.8247530513
1.73741813959
1.6151627719
1.58248829905
1.60245495706
1.6539941722
1.73007495962
1.82546708177
1.93531598532
2.05564135368
2.18325424558
2.31550050298
2.45009345415
2.58502365098
2.71850497113
2.84894009354
2.9748985747
3.09510263786
3.2084174117
3.31384365234
3.41051202768
3.49767837315
3.57471972492
3.64113065524
3.69652039178
3.74060890033
3.77322600206
3.79430243464
3.80388093687
3.80208356443
3.78925456042
3.76591930582
3.73237079488
3.68902061919
3.63637257321
3.57498445096
3.50545048942
3.42839238375
3.34445432693
3.25430099916
3.15861334468
3.05807772547
2.95337010732
2.84513986173
2.73399600349
2.62049661931
2.50514181439
2.38837080238
2.27056340513
2.15204568559
2.03310030723
1.9139796055
1.79492077148
1.67616336431
1.55795910082
1.44058935886
1.32437097001
1.20966281726
1.09686288302
0.986399710762
0.878729985447
0.77433776602
0.673716783266
0.577382931449
0.485910107132
0.399722551492
0.318919080397
0.244115285368
0.174523333389
0.109875677488
0.0474632641023
-0.00770891508023
-0.0719004988272
-0.101317637835
-0.236376007959
0.314646378624
-0.566105572621
-1.75023635132
6.10086969201
1.57405727556
2.12111329971
1.89529726946
1.75118154796
1.70936717023
1.72097990005
1.76704761174
1.83898956186
1.93008409424
2.03491215974
2.1493964675
2.27042280639
2.39548647659
2.5224818627
2.6495821461
2.7751670652
2.89778000542
3.01610382888
3.12894776106
3.23524042217
3.33402610995
3.42446274092
3.50582057368
3.57748123643
3.63893659935
3.68978790754
3.72974319282
3.75861788799
3.77632437886
3.7828897842
3.77840867416
3.76323952786
3.73774853862
3.70214705216
3.65682862718
3.60230765022
3.53916729882
3.46803618571
3.38957633926
3.30447305544
3.21342673142
3.11714603558
3.01633959282
2.91170485655
2.80391513066
2.69360620556
2.58136389042
2.46771367668
2.35311431202
2.23795663826
2.12256726892
2.0072201027
1.89215067429
1.77757231084
1.66369795371
1.55074137097
1.4389401988
1.32855532935
1.21988096488
1.11324063888
1.00898118544
0.907453330859
0.809034329377
0.714117149314
0.622954859223
0.536183664186
0.453930112614
0.37546530762
0.301504089479
0.230579945342
0.161060732528
0.0907584757535
0.0230367754097
-0.0539397935115
-0.112079599254
-0.224442639358
0.354555960633
-0.657379995311
-1.81173479211
7.26025476804
1.58857111026
2.42472634022
2.0427191177
1.89577974797
1.84560428568
1.85069355157
1.89275970673
1.96103667439
2.04769289819
2.14699527811
2.25489074355
2.36841953228
2.48528560797
2.60360649664
2.72176701568
2.83833344198
2.95200559143
3.06159258584
3.16600193505
3.2642360303
3.35539213469
3.43866400094
3.51334383827
3.57882413021
3.63459884448
3.6802643826
3.7155187112
3.74016306127
3.7540926515
3.75731633444
3.74990738867
3.73224523494
3.70468741585
3.66744131496
3.62087088679
3.5654543314
3.50173412953
3.43030001626
3.35178561301
3.26686268039
3.17623193503
3.08061276095
2.98073178549
2.87730962954
2.77104624863
2.66260577698
2.55260231376
2.44158736303
2.33004100664
2.21836874329
2.1069011953
1.99590645093
1.88560437507
1.7761815845
1.66782434636
1.56070328807
1.45501005168
1.35094578652
1.24874578584
1.14864984574
1.0509468711
0.955875365759
0.863687344746
0.774858855093
0.689007705192
0.606914714891
0.528548564673
0.452081262868
0.377380396877
0.301902460898
0.222858835555
0.138443138595
0.0502508937366
-0.0479668730229
-0.140737107314
-0.194184661474
0.325496802438
-0.782584373183
-1.81858475462
8.39231792948
1.53163642649
2.74489345631
2.17992853177
2.04858635731
1.98859608332
1.98923622633
2.02832217033
2.09304873153
2.17492553222
2.26808833661
2.36862030402
2.4737939188
2.5815733421
2.69033115084
2.79868264042
2.90539177115
3.0093220069
3.10941428012
3.20467957025
3.29419944971
3.37712994331
3.45270667169
3.52024986124
3.57916860846
3.62896435059
3.66923329065
3.69966786042
3.72005875853
3.73029173315
3.73036300326
3.72035381909
3.7006200456
3.67143698626
3.63299113056
3.58563052271
3.52981875106
3.46608118871
3.39498800481
3.31715285885
3.2332293775
3.14390375897
3.04988599983
2.95189976119
2.85066977552
2.74690682906
2.64129087516
2.53445491005
2.42696968051
2.3193320939
2.21196139967
2.1051920034
1.99928811543
1.89445738055
1.7908609646
1.68866667589
1.58800365512
1.48903219725
1.39188995888
1.29678660182
1.2038587345
1.11341370476
1.02560595572
0.940305978033
0.858469037962
0.779486951094
0.703263875525
0.629566454988
0.555555769918
0.478793104815
0.395031328292
0.301095815911
0.1962157968
0.0821387651567
-0.042662482097
-0.160234172253
-0.157903007249
0.194571317378
-0.904299227416
-1.77359538132
9.46761565912
1.41929185079
3.08640429127
2.3041623601
2.2083348158
2.13560830731
2.13434479102
2.17107660828
2.23222478108
2.30895634808
2.39540399529
2.48789588187
2.58400493966
2.68199602418
2.78051883397
2.87842929041
2.97469275794
3.06833710225
3.1584350905
3.24410141466
3.32449788748
3.39884099891
3.46641050378
3.5265570483
3.57870863385
3.62237619264
3.65715701341
3.68273900196
3.6989008508
3.70551859572
3.70257052458
3.69017173153
3.66868160792
3.6382682353
3.59911738716
3.55156107798
3.49603031366
3.43301354043
3.36304670419
3.28671341531
3.20464136655
3.11749507842
3.02596765875
2.93077155403
2.83262673523
2.73224630695
2.63031835813
2.5274891084
2.42434485034
2.32139698772
2.21908067718
2.1177350003
2.01762407541
1.91894840377
1.82184431632
1.72647834102
1.63293733021
1.54138132725
1.45187525814
1.36472028085
1.27989567576
1.19768434187
1.11872991629
1.04261291784
0.969960052464
0.900436617971
0.83284600488
0.765336426972
0.693659627878
0.612851321823
0.517372446519
0.404685750591
0.276620901898
0.136827023458
-0.0146012404546
-0.153489851444
-0.158804890796
-0.0453936923052
-0.979570128861
-1.68196827229
10.4646044244
1.27060541779
3.44902105748
2.41176712415
2.37412037912
2.28417561009
2.28398532336
2.31858293175
2.37611486708
2.44739092886
2.52665840409
2.61059265795
2.69711944596
2.78483384548
2.8726766002
2.95974849274
3.04521577647
3.12826853092
3.20810913037
3.28395443612
3.35504594183
3.42066077322
3.48012361362
3.53281654996
3.57818759487
3.61575837274
3.64512795011
3.6659812601
3.67808136137
3.68129809126
3.67555331353
3.66105545789
3.63819226325
3.60694933327
3.5675319956
3.520276549
3.46558675729
3.40391250146
3.33575061645
3.26164687481
3.1821928577
3.09802013223
3.0097937756
2.91820464464
2.82395832163
2.72776223342
2.63030554058
2.53224318563
2.43417498611
2.33662498399
2.24005002438
2.14479653444
2.0511340496
1.95926637856
1.86931512826
1.78146068032
1.69575227158
1.61244577997
1.53148373719
1.45330858117
1.37842705904
1.30682862229
1.23913612804
1.17535711949
1.11550514825
1.05876974643
1.00277308689
0.94329778821
0.873879510726
0.787654587476
0.679405704567
0.548796250853
0.400197307485
0.23572548134
0.0501633660448
-0.134386454205
-0.231780704288
-0.337560599318
-0.958735295471
-1.55031456531
11.3693131541
1.10460419844
3.82803788002
2.4997981901
2.54558659849
2.43197475451
2.436308042
2.46860708064
2.52257278403
2.58817163297
2.65993661194
2.73497294654
2.81159395407
2.88874496848
2.96566526921
3.04170087236
3.11621654546
3.18856146443
3.25806494201
3.32404392714
3.38581841521
3.44272530184
3.49413394826
3.5394575521
3.57816426623
3.60978649385
3.63392607633
3.65026489249
3.65855515396
3.65865904679
3.65047632394
3.6342823747
3.61041684471
3.57878239765
3.53956232655
3.49309243909
3.43975902785
3.37998086199
3.31421908511
3.2429814006
3.16681913452
3.08632332801
3.00212123138
2.91487178266
2.82525565081
2.7339665283
2.64168736493
2.54907792407
2.45675103386
2.36524221308
2.2750375367
2.18649428264
2.09990099282
2.01545730931
1.93331979742
1.85371396144
1.77666545826
1.70254280915
1.6318571135
1.56484764824
1.50201719588
1.44382929535
1.39081557546
1.34324457395
1.30070578625
1.2611007298
1.2197881263
1.16971323151
1.10236018448
1.01036293631
0.889842912428
0.741339035614
0.566408013661
0.359641555308
0.11306979872
-0.145418390704
-0.35388771711
-0.570073678151
-0.888774955158
-1.38572329932
12.1743770209
0.938261220615
4.21565396028
2.56703561933
2.72262788779
2.57672338851
2.5896672319
2.61912248308
2.66971535467
2.72950168149
2.79358995609
2.85955810832
2.92612719567
2.99260546225
3.05853331914
3.12350064036
3.18706823047
3.24874190571
3.30797585841
3.36418538619
3.41676763009
3.46511774939
3.50864867453
3.54680322174
3.57906897636
3.60498862929
3.62416739295
3.63628532579
3.64108891474
3.63843533808
3.62821229284
3.61074760533
3.58628643523
3.55469275567
3.51612885985
3.47092431069
3.41944874911
3.36209188256
3.29928047093
3.23148490828
3.15921571908
3.08302056525
3.00348321438
2.92122353268
2.83688784809
2.75114944547
2.66467752828
2.57813420076
2.49214660418
2.40726007366
2.32400505058
2.24274367926
2.16382427429
2.08738513731
2.01382192619
1.94325165045
1.87629781732
1.81329191015
1.75449462843
1.70070804959
1.65261240547
1.61124948859
1.57747991947
1.55135038676
1.53109721093
1.51207153281
1.4862478005
1.44339890073
1.37299492527
1.266640711
1.11900258069
0.926835237999
0.68675468006
0.396487680504
0.072086552623
-0.231533951574
-0.466060434244
-0.663193815404
-0.803832521091
-1.19518961891
12.8777083963
0.785353285936
4.60248439055
2.61427703721
2.9048943247
2.71619811212
2.74264763681
2.76829209455
2.81588308256
2.86978933665
2.92616780413
2.98304766495
3.03957124621
3.09541613677
3.15042323828
3.20442461226
3.25717566248
3.30833753729
3.35748814611
3.40413955951
3.44776432179
3.4878133306
3.52374093124
3.55501662338
3.58114631487
3.60168160105
3.61623134721
3.62447455986
3.62615908962
3.62113799255
3.60932201412
3.59101340593
3.56636316666
3.53522751547
3.49776110198
3.45428646429
3.40515538697
3.35072814245
3.29139525203
3.22758699149
3.15977015384
3.08844614977
3.01415124593
2.93746268751
2.85898446796
2.77936663301
2.69925856747
2.61932218154
2.54020436757
2.46246740003
2.38670132894
2.31324153309
2.24268989349
2.17484106183
2.11095477668
2.05120932469
1.99550480265
1.94486983403
1.89978564526
1.86170572537
1.83207412573
1.81239995971
1.80329074996
1.80330925922
1.8075579705
1.80689683834
1.78818067417
1.73628375021
1.63629002897
1.47571636997
1.24615862394
0.945958864346
0.585250995555
0.194356023633
-0.168389008305
-0.436000129328
-0.596138401341
-0.692801137794
-0.743809174027
-0.985230669808
13.4811629519
0.656073037562
4.97892376357
2.64412397165
3.09140077525
2.84839247196
2.8940667717
2.91444559192
2.95961275915
3.00761101515
3.05637446914
3.10427070141
3.15088150013
3.19625406166
3.2405273226
3.28377459301
3.32594564964
3.36685673743
3.40620868584
3.4436084012
3.47860105944
3.51068944782
3.53936576369
3.56412211805
3.58448205596
3.60000380604
3.61029996461
3.61504665615
3.61399299121
3.606994791
3.59400308314
3.57528154732
3.55086554203
3.52063075567
3.48472925887
3.4434634796
3.39715979108
3.34615053838
3.29079297449
3.23147797832
3.16862688615
3.1026923862
3.03415822895
2.96355743221
2.89144476845
2.81844562997
2.74518548087
2.67233305804
2.60054528457
2.53042858041
2.46271555132
2.3975670429
2.33617485942
2.27858197494
2.22534298709
2.1770018086
2.133648809
2.09687432396
2.06808498435
2.049517484
2.0431415474
2.05011839554
2.06918621011
2.09500627969
2.11665696051
2.117505711
2.07658190195
1.9718620965
1.78417022774
1.50231554548
1.12937219551
0.689508608559
0.230991945226
-0.180310501683
-0.481100250433
-0.646665064924
-0.718598447743
-0.743261174981
-0.758518303267
-0.761702640271
13.9893256604
0.557138840676
5.33616611516
2.66046375475
3.28034211952
2.97171755192
3.04291924205
3.05606074744
3.09961871002
3.14168650873
3.18304361896
3.22215936209
3.25909249096
3.29425200312
3.32807223182
3.36086757831
3.39278292481
3.42378967053
3.45371044712
3.48224383089
3.50900348284
3.53353850635
3.5553739325
3.57402034776
3.58901999347
3.59993528205
3.60638592577
3.60803843418
3.60464651684
3.59600242873
3.58219103097
3.56350710012
3.5397455466
3.51085310487
3.47699740781
3.43844209768
3.39546822001
3.34837182349
3.29747561876
3.24313296161
3.18572036702
3.12564265368
3.0633283707
2.99926703229
2.93395557287
2.86800370205
2.8020032409
2.73665226659
2.67258869828
2.61060105728
2.55154602856
2.49601045422
2.4447907773
2.3978736142
2.35581382862
2.31949829146
2.2899982918
2.2696604918
2.26080845664
2.26612373298
2.28706753697
2.32251533477
2.36645217383
2.40612857399
2.42125879292
2.38560062492
2.27096768168
2.05381825939
1.72314146951
1.28893924775
0.788141773289
0.282941373688
-0.154117599834
-0.466997958421
-0.641358067395
-0.710530012228
-0.719540101723
-0.670613515755
-0.548304737062
-0.529720464125
14.4085127468
0.492207755573
5.66685214435
2.66785388592
3.46912838208
3.08516458731
3.18828001653
3.19176640523
3.23477905918
3.27086313327
3.3051244405
3.33573627029
3.36330890607
3.38859355804
3.41231862437
3.43503976306
3.45709785286
3.47861899816
3.49954526446
3.51966200246
3.53864566831
3.55608401223
3.571528757
3.58450685653
3.59458224922
3.60132023109
3.6043545807
3.6033479488
3.59805469322
3.58821948236
3.57403835699
3.55578536895
3.53309308548
3.5059519819
3.4745601964
3.43915394037
3.39996460414
3.35724218636
3.31126391712
3.26233950372
3.21079732589
3.15699434655
3.10129631618
3.04415902019
2.98601851992
2.92746922862
2.86905623916
2.81166660611
2.75570927655
2.70274699315
2.65352092362
2.60799146251
2.56711914959
2.53105835806
2.50086196177
2.47808831958
2.46485429917
2.46425560313
2.47907212805
2.51127266566
2.55967741405
2.61776344222
2.67117052307
2.69674965689
2.66409740526
2.54072066957
2.30035990609
1.93328616986
1.45540415512
0.912368614733
0.373683967629
-0.0855806179494
-0.411452963128
-0.593303644264
-0.665181296321
-0.675545412356
-0.641089030776
-0.528586380655
-0.345252802454
-0.293669353326
14.7459842508
0.462426380069
5.96537587122
2.67094754473
3.65458123578
3.18837626877
3.32919975745
3.32036814189
3.36411912149
3.39410618343
3.42167483484
3.44410975803
3.46270490472
3.47851602069
3.49256756391
3.50565568041
3.51831768561
3.53083245504
3.54325737166
3.55545783048
3.56716616202
3.57799820999
3.58752714136
3.59529832923
3.60090089015
3.60390209653
3.60396585411
3.60075882964
3.59403641612
3.58352972755
3.56948775101
3.55207425055
3.53087799519
3.50590097711
3.47736459518
3.44549283001
3.41047798963
3.37252726934
3.33186612989
3.28875301904
3.24345547446
3.19628494885
3.1475435436
3.09763751797
3.04695466131
2.99614634348
2.94560791376
2.89669079505
2.85001964044
2.80654477572
2.76711137961
2.73169873958
2.70138997937
2.6768907735
2.65993390838
2.6528923532
2.65877502939
2.68095475627
2.72144799914
2.77932555096
2.84768385365
2.91123900109
2.94494437088
2.91574757885
2.78828230371
2.53455493598
2.14541187432
1.640127659
1.06897533551
0.504802736142
0.0230131760459
-0.3235838915
-0.522884720226
-0.603556745588
-0.615217930403
-0.595931114011
-0.53710841131
-0.404413864988
-0.235602064546
-0.0572496451086
15.0093629086
0.467013412009
6.22792872334
2.67404287865
3.83321783974
3.2816172804
3.46462783319
3.44088664904
3.48678809999
3.51049576456
3.53185789567
3.54647321438
3.55652715118
3.56331627676
3.56816878237
3.57211813948
3.57589746952
3.5799343411
3.58439534032
3.58921811607
3.59418228266
3.59891763218
3.60301853735
3.60605502811
3.60764079008
3.6073488903
3.60489958924
3.59996333447
3.59230409758
3.58165487011
3.5682190616
3.5520543651
3.53276380029
3.51036680445
3.4850931338
3.45714678818
3.42668033193
3.39386479856
3.35886877163
3.321903606
3.28317311066
3.24292149921
3.20140050393
3.15896518811
3.11603316716
3.07324612074
3.03140899113
2.99150631107
2.95414989922
2.92023960113
2.89056781992
2.86555562157
2.84652083564
2.83482028157
2.83294090399
2.84401019655
2.8713945162
2.91754966734
2.98160004303
3.05682195428
3.12759504941
3.16813242575
3.14399437209
3.01811697798
2.76096984305
2.3627467142
1.84308753047
1.25320572773
0.666507352588
0.15842740255
-0.217685568811
-0.446945583413
-0.552299312874
-0.577806646172
-0.565812017143
-0.535523703476
-0.469630247489
-0.34177645191
-0.198727381341
0.176429752306
15.2062108468
0.503809567771
6.45236576387
2.68079080007
4.00155353032
3.36566262548
3.59338345815
3.55259097433
3.60203032448
3.61922914951
3.63493862517
3.64210617518
3.64409893852
3.64235693455
3.6385284463
3.63387677211
3.62932896322
3.62545434895
3.62252130638
3.62053171587
3.61930053618
3.61845450261
3.61762036265
3.61639623386
3.61441255358
3.61126635992
3.60676285906
3.60056671248
3.59247668464
3.58220663228
3.56982924461
3.55532438609
3.53835299835
3.51894818185
3.49733256697
3.47368838625
3.44811909598
3.4207692295
3.3917526275
3.36121471108
3.32930281926
3.29617407279
3.26218414264
3.22735840648
3.19265323698
3.15850130429
3.12534825836
3.09441039274
3.06631955559
3.04208655175
3.02256668943
3.00860483426
3.00188237348
3.00449269502
3.01959879933
3.05061129726
3.10007889457
3.16758357789
3.24671152857
3.32233583984
3.36881379111
3.35149441519
3.23242530285
2.98060264521
2.58429123385
2.06106808662
1.46016144953
0.853543390385
0.316576534833
-0.0950213569182
-0.361398921367
-0.499287192905
-0.547385593646
-0.546478073472
-0.524866702076
-0.48958550805
-0.423337600636
-0.30712669134
-0.183656758393
0.404744906406
15.3437499462
0.569774851803
6.6379759303
2.69405621455
4.15636827225
3.44163204738
3.71417551389
3.65501020471
3.70915682861
3.71962687756
3.73027920664
3.73037648084
3.724823879
3.7150716585
3.7031154409
3.6904347576
3.67814720511
3.66695395249
3.65721786437
3.64899704973
3.64212348887
3.63620718954
3.63093429648
3.62591627562
3.62079336676
3.61522634382
3.60911579934
3.60211689103
3.59406932656
3.58466376055
3.57382364878
3.56136252178
3.54712447404
3.531156502
3.51360312544
3.49461745905
3.47427106772
3.45267116583
3.42988407421
3.40599044347
3.38119164772
3.3552756155
3.32906938271
3.30250246337
3.27592876055