/*--------------------------------*- C++ -*----------------------------------*\
| =========                 |                                                 |
| \\      /  F ield         | OpenFOAM: The Open Source CFD Toolbox           |
|  \\    /   O peration     | Version:  v1806                                 |
|   \\  /    A nd           | Web:      www.OpenFOAM.com                      |
|    \\/     M anipulation  |                                                 |
\*---------------------------------------------------------------------------*/
FoamFile
{
    version     2.0;
    format      ascii;
    class       surfaceScalarField;
    location    "900";
    object      phi;
}
// * * * * * * * * * * * * * * * * * * * * * * * * * * * * * * * * * * * * * //

dimensions      [0 3 -1 0 0 0 0];
oriented        oriented;


internalField   nonuniform List<scalar> 
12640
(
1.33272223589e-05
-1.33272399085e-05
2.08902555148e-05
-7.56305213827e-06
2.3670970101e-05
-2.78073424081e-06
1.58695151573e-05
7.80143718654e-06
-3.08054193267e-06
1.89500374565e-05
-3.20146110699e-05
2.89340498292e-05
-6.22667370148e-05
3.0252112206e-05
-9.29183904588e-05
3.06516421632e-05
-0.000123365648259
3.04472476277e-05
-0.00015313048014
2.97648227521e-05
-0.000181848349837
2.87178613476e-05
-0.000209259890007
2.74115325672e-05
-0.000235194651444
2.59347544443e-05
-0.000259554428836
2.43597709314e-05
-0.000282297634151
2.27431993065e-05
-0.000303425397465
2.11277576748e-05
-0.000322969686211
1.95442834367e-05
-0.0003409835086
1.80138173328e-05
-0.000357533111095
1.65495976772e-05
-0.000372691976416
1.51588606728e-05
-0.000386536371989
1.38443910962e-05
-0.000399142180421
1.2605804068e-05
-0.000410582752011
1.14405673458e-05
-0.000420927545672
1.03447894903e-05
-0.000430241358163
9.31380840312e-06
-0.000438583978215
8.3426160078e-06
-0.000446010134835
7.42615263018e-06
-0.0004525696385
6.55949969905e-06
-0.000458307636899
5.73799446495e-06
-0.000463264925777
4.95728495794e-06
-0.000467478266543
4.21333686215e-06
-0.000470980672466
3.50240202718e-06
-0.000473801606282
2.82092992224e-06
-0.00047596692284
2.16531266654e-06
-0.000477498497873
1.53157113775e-06
-0.000478414380938
9.15879186325e-07
-0.000478727217265
3.12832452206e-07
-0.000478445327531
-2.81893575204e-07
-0.000477576737321
-8.68594045294e-07
-0.000476133480502
-1.44326061132e-06
-0.000474131169096
-2.00231519612e-06
-0.00047158493621
-2.54623662968e-06
-0.000468508308615
-3.07663134171e-06
-0.00046491282481
-3.59548750201e-06
-0.000460807931106
-4.10489741125e-06
-0.000456200982609
-4.60695215062e-06
-0.00045109729781
-5.10368847186e-06
-0.000445500257831
-5.59704359739e-06
-0.000439411456875
-6.08880460425e-06
-0.000432830914179
-6.58054629129e-06
-0.000425757357448
-7.07356036712e-06
-0.000418188582897
-7.56877813935e-06
-0.000410121891282
-8.06669525684e-06
-0.00040155458981
-8.56730507247e-06
-0.000392484540811
-9.07005266615e-06
-0.000382910726201
-9.57381824626e-06
-0.000372833787252
-1.00769426668e-05
-0.000362256487808
-1.05773031431e-05
-0.000351184041736
-1.10724498688e-05
-0.000339624237756
-1.1559807772e-05
-0.000327587292943
-1.20369487206e-05
-0.000315085364384
-1.25019324769e-05
-0.000302131653097
-1.29537153361e-05
-0.000288739038348
-1.33926188213e-05
-0.000274918191024
-1.38208515359e-05
-0.000260675122649
-1.42430726175e-05
-0.000246008148442
-1.46669785889e-05
-0.000230904279
-1.51038738557e-05
-0.000215335092997
-1.55691905511e-05
-0.000199252258318
-1.60828392664e-05
-0.000182583163746
-1.66690993311e-05
-0.000165227324838
-1.73558437736e-05
-0.000147054888267
-1.81724417407e-05
-0.00012791169647
-1.91431973684e-05
-0.000107641827351
-2.02698750826e-05
-8.6139824274e-05
-2.15020097596e-05
-6.34234882006e-05
-2.27163434235e-05
-3.97531915033e-05
-2.36703045131e-05
-1.64278139703e-05
-2.33253917831e-05
-1.64278220819e-05
9.76840187865e-06
-2.30956734462e-05
6.5197369999e-06
-4.31441680041e-06
-1.3242098634e-05
1.69810817432e-05
-4.15373253415e-05
3.60966504516e-05
-6.96924563541e-05
4.71051590546e-05
-9.67836473998e-05
5.60252336211e-05
-0.000126389095619
5.98575534898e-05
-0.000156804748975
6.10672891189e-05
-0.000187056774385
6.06992665581e-05
-0.000216525452931
5.92334952208e-05
-0.000244801876652
5.69942790156e-05
-0.000271618056582
5.42277068589e-05
-0.000296810317997
5.11270103089e-05
-0.000320293899792
4.7843347544e-05
-0.000342043080725
4.44923751497e-05
-0.000362075028901
4.11597010571e-05
-0.000380436714866
3.79059646858e-05
-0.000397194517676
3.47716156487e-05
-0.000412426200756
3.17812763259e-05
-0.000426214916287
2.89475719267e-05
-0.000438644891776
2.62743623597e-05
-0.000449798462873
2.37593710362e-05
-0.000459754150136
2.13962505262e-05
-0.000468585518902
1.91761542212e-05
-0.000476360608516
1.70888940281e-05
-0.00048314176113
1.51237646375e-05
-0.000488985719335
1.32701068989e-05
-0.000493943894057
1.15176704516e-05
-0.000498062728935
9.85682542845e-06
-0.000501384112903
8.27866494886e-06
-0.00050394581133
6.77503137779e-06
-0.000505781879464
5.33846616001e-06
-0.000506923004872
3.96205140484e-06
-0.000507396688644
2.63899240112e-06
-0.000507226658067
1.36153661871e-06
-0.000506431836774
1.21053835413e-07
-0.000505040687167
-1.07832106831e-06
-0.000503092147034
-2.23043773608e-06
-0.00050061988636
-3.34085858323e-06
-0.000497647088457
-4.41606250417e-06
-0.000494187930335
-5.46147713025e-06
-0.000490253096876
-6.48107403916e-06
-0.000485851179347
-7.47855263406e-06
-0.00048098910936
-8.45756139893e-06
-0.000475672267768
-9.42174272057e-06
-0.00046990450549
-1.03747183032e-05
-0.000463688154555
-1.13200430859e-05
-0.000457024068836
-1.22611331607e-05
-0.000449911711915
-1.32011651766e-05
-0.000442349311321
-1.41429507116e-05
-0.000434334086992
-1.50887883353e-05
-0.000425862564546
-1.60403044086e-05
-0.000416930969887
-1.69982935618e-05
-0.000407535700906
-1.79625778903e-05
-0.000397673854635
-1.89319026128e-05
-0.000387343785049
-1.99038917066e-05
-0.000376545648847
-2.08750825982e-05
-0.000365281893961
-2.18410619645e-05
-0.000353557629665
-2.27967179767e-05
-0.000341380818565
-2.37366228941e-05
-0.000328762221546
-2.46555496618e-05
-0.000315715034558
-2.55491235998e-05
-0.000302254155121
-2.64145988297e-05
-0.000288395029935
-2.72517482745e-05
-0.000274152042455
-2.80638432215e-05
-0.000259536416361
-2.88587031144e-05
-0.000244553616947
-2.96497823561e-05
-0.000229200292363
-3.04572029679e-05
-0.000213460818785
-3.1308668616e-05
-0.000197303483885
-3.22401788099e-05
-0.000180676701258
-3.32958865932e-05
-0.000163505875817
-3.45266740539e-05
-0.000145691801312
-3.59865212023e-05
-0.000127112953155
-3.7722050782e-05
-0.000107634781186
-3.97480526969e-05
-8.71310503917e-05
-4.20057464429e-05
-6.55535917484e-05
-4.42938081842e-05
-4.31743990286e-05
-4.60495042378e-05
-2.09908238981e-05
-4.5508974604e-05
-3.74186528765e-05
-8.4012804702e-06
-1.46944017443e-05
-3.02324682763e-05
1.75167546208e-05
-5.60572000908e-05
4.28058042158e-05
-8.14004473395e-05
6.14398907679e-05
-0.000108791268502
7.44959744919e-05
-0.00013600015438
8.32341143848e-05
-0.000163772805442
8.76301998884e-05
-0.00019161878183
8.89132609031e-05
-0.000218917165602
8.79976458005e-05
-0.000245200230609
8.55165556232e-05
-0.000270154597183
8.19486410464e-05
-0.000293589314572
7.76624196815e-05
-0.000315406241956
7.29439332229e-05
-0.000335575457808
6.80125589441e-05
-0.000354115353903
6.30322668964e-05
-0.000371076790382
5.8121133222e-05
-0.000386530803014
5.33599730975e-05
-0.000400559378699
4.88001871453e-05
-0.000413248800167
4.44706936779e-05
-0.000424685061195
4.03838288665e-05
-0.0004349508844
3.65401815251e-05
-0.00044412393166
3.29324142778e-05
-0.000452275868122
2.95481829969e-05
-0.000459472013331
2.63722954536e-05
-0.000465771378968
2.33882556947e-05
-0.0004712269481
2.05793298089e-05
-0.00047588609356
1.79292483853e-05
-0.000479791064161
1.5422637084e-05
-0.0004829794913
1.30452485688e-05
-0.000485484897847
1.07840675011e-05
-0.000487337213874
8.6273433688e-06
-0.000488563244063
6.56449231587e-06
-0.000489186860142
4.5856633926e-06
-0.000489229119004
2.68124717836e-06
-0.000488710556732
8.42970220559e-07
-0.000487655657832
-9.33849139294e-07
-0.000486086867694
-2.64711529752e-06
-0.0004840179159
-4.2993935485e-06
-0.000481459621037
-5.89915748776e-06
-0.000478423023892
-7.45266361387e-06
-0.0004749187847
-8.96572031449e-06
-0.000470956278022
-1.04435846294e-05
-0.000466543490401
-1.18913442013e-05
-0.000461686996674
-1.33140589911e-05
-0.000456391930889
-1.47168124104e-05
-0.000450661951342
-1.61047016768e-05
-0.000444499219044
-1.74827792561e-05
-0.000437904409359
-1.88559466436e-05
-0.000430876776684
-2.02288017053e-05
-0.00042341428914
-2.16054420418e-05
-0.000415513848692
-2.2989232635e-05
-0.000407171606339
-2.43825505549e-05
-0.000398383376533
-2.57865272382e-05
-0.000389145144696
-2.7200813552e-05
-0.000379453652129
-2.86233990918e-05
-0.000369307029301
-3.00505184158e-05
-0.000358705438395
-3.14766774838e-05
-0.000347651674398
-3.28948299238e-05
-0.000336151664889
-3.42967315555e-05
-0.000324214801484
-3.5673490366e-05
-0.000311854036365
-3.70163189612e-05
-0.000299085676933
-3.83174872199e-05
-0.000285928824094
-3.95714559749e-05
-0.000272404403923
-4.07761727671e-05
-0.000258533763956
-4.19344876248e-05
-0.000244336826188
-4.30556453373e-05
-0.000229829768536
-4.41568445654e-05
-0.000215022279216
-4.5264696863e-05
-0.000199914562358
-4.64163901372e-05
-0.000184493797906
-4.76609479453e-05
-0.000168730484168
-4.90592051191e-05
-0.000152575410672
-5.06817524071e-05
-0.000135956788592
-5.26051483174e-05
-0.000118777831178
-5.49010134727e-05
-0.000100916417698
-5.76094716365e-05
-8.22333263127e-05
-6.06888436426e-05
-6.26186428515e-05
-6.39084976058e-05
-4.21022436301e-05
-6.6565909028e-05
-2.09685014607e-05
-6.66427256631e-05
-5.83871580286e-05
-2.4418153487e-05
9.72371881454e-06
-5.2295606715e-05
4.53941958458e-05
-7.89058144826e-05
6.94160053933e-05
-0.000105357081999
8.78911530874e-05
-0.000131861290254
0.000101000178254
-0.000157954198072
0.000109327018287
-0.000183624120967
0.000113300119131
-0.000208640005887
0.000113929142294
-0.000232706410227
0.000112064046547
-0.000255582506367
0.000108392648123
-0.000277108629303
0.000103474760233
-0.000297201826672
9.77556132598e-05
-0.000315840089848
9.15821925338e-05
-0.000333044959317
8.52174245388e-05
-0.000348866237328
7.88535409941e-05
-0.000363369912916
7.26248049057e-05
-0.000376629334538
6.66193907984e-05
-0.000388719204671
6.08900533709e-05
-0.000399711807552
5.5463292644e-05
-0.00040967487655
5.03468939617e-05
-0.000418670586742
4.55358878107e-05
-0.000426755268897
4.10170925309e-05
-0.000433979552804
3.67724629986e-05
-0.000440388742426
3.27814811656e-05
-0.000446023297869
2.90228072213e-05
-0.000450919350167
2.54753781743e-05
-0.000455109208147
2.21191024201e-05
-0.000458621836469
1.89352614313e-05
-0.000461483294854
1.59067029629e-05
-0.000463717144972
1.30179135901e-05
-0.000465344848063
1.02550424109e-05
-0.000466386133658
7.60577381221e-06
-0.000466859120891
5.05864650605e-06
-0.000466780008155
2.60213027584e-06
-0.000466164017643
2.26975544203e-07
-0.000465033893448
-2.06397748769e-06
-0.000463408507509
-4.2725053308e-06
-0.000461297506519
-6.41039862585e-06
-0.000458712580855
-8.48408718311e-06
-0.000455664865835
-1.05003826648e-05
-0.000452164704623
-1.24658855018e-05
-0.000448221318602
-1.43869746303e-05
-0.000443842700425
-1.62699663059e-05
-0.000439035534832
-1.81212285215e-05
-0.000433805116553
-1.99472345773e-05
-0.000428155268838
-2.17545532983e-05
-0.000422088277612
-2.35497743452e-05
-0.000415604861527
-2.53393666198e-05
-0.000408704198676
-2.71294684134e-05
-0.000401384031968
-2.89256126468e-05
-0.00039364087225
-3.0732396227e-05
-0.000385470315324
-3.25531114077e-05
-0.000376867480808
-3.43893656713e-05
-0.000367827571744
-3.62407265994e-05
-0.000358346540259
-3.8104434565e-05
-0.000348421831149
-3.99752315929e-05
-0.000338053160586
-4.18453521313e-05
-0.00032724327847
-4.3704716211e-05
-0.000315998647533
-4.55413666905e-05
-0.000304329964383
-4.73421778035e-05
-0.000292252452763
-4.90938349009e-05
-0.000279785851825
-5.07840925691e-05
-0.000266954050987
-5.24032612581e-05
-0.000253784318213
-5.39459100761e-05
-0.000240306088693
-5.54127217155e-05
-0.000226549351014
-5.68123876691e-05
-0.000212542582186
-5.81636180812e-05
-0.000198310137729
-5.949714608e-05
-0.000183869787399
-6.08567452634e-05
-0.000169229277149
-6.2301463063e-05
-0.000154382408728
-6.39060784698e-05
-0.000139306461971
-6.57577042074e-05
-0.000123958243941
-6.79533715418e-05
-0.000108266996761
-7.05922660416e-05
-9.21275843343e-05
-7.37488897656e-05
-7.53953903837e-05
-7.74210433629e-05
-5.78923339024e-05
-8.14115599411e-05
-3.94153628786e-05
-8.50428868073e-05
-1.98504388188e-05
-8.62076550088e-05
-7.82376024567e-05
-3.36458757238e-05
4.33695970938e-05
-6.27342526652e-05
7.4482568543e-05
-9.06664639467e-05
9.7348212032e-05
-0.000117578367472
0.000114803052323
-0.000143417507376
0.000126839314329
-0.000168111962677
0.000134021470132
-0.000191726058892
0.000136914212146
-0.000214208657054
0.000136411737339
-0.000235478755067
0.000133334141448
-0.000255476974732
0.000128390864593
-0.000274178998167
0.000122176780396
-0.000291595068208
0.000115171679921
-0.000307761748252
0.000107748869126
-0.000322731898467
0.000100187571217
-0.00033656594724
9.26875861792e-05
-0.0003493255797
8.5384433719e-05
-0.000361069855815
7.83636632338e-05
-0.0003718532655
7.16734593378e-05
-0.000381725100229
6.53351236333e-05
-0.00039072959103
5.93513809959e-05
-0.000398906408384
5.37127013814e-05
-0.000406291269096
4.84019494391e-05
-0.000412916514045
4.33977041267e-05
-0.000418811601764
3.86765650453e-05
-0.000424003509347
3.42147109422e-05
-0.000428517053623
2.99889185644e-05
-0.000432375153018
2.59771978978e-05
-0.000435599051961
2.21591564255e-05
-0.000438208529398
1.85161764084e-05
-0.000440222095921
1.50314760877e-05
-0.0004416571684
1.1690110818e-05
-0.000442530221484
8.47882278054e-06
-0.000442857033317
5.3854541505e-06
-0.000442653421509
2.39851425435e-06
-0.000441936611754
-4.89838421278e-07
-0.000440723261644
-3.27733175982e-06
-0.000439027326183
-5.96844492468e-06
-0.000436861295494
-8.57643339862e-06
-0.000434236837902
-1.1108548839e-05
-0.000431164911917
-1.35723126712e-05
-0.00042765573619
-1.59750652363e-05
-0.000423718628142
-1.8324086648e-05
-0.000419361860725
-2.06267376855e-05
-0.000414592520038
-2.289057314e-05
-0.000409416358965
-2.5123399584e-05
-0.000403837652425
-2.73332637502e-05
-0.000397859069046
-2.95283616492e-05
-0.000391481579686
-3.17168598949e-05
-0.000384704427697
-3.39066243447e-05
-0.00037752518754
-3.61048567496e-05
-0.000369939938397
-3.83176493604e-05
-0.000361943575708
-4.05494781052e-05
-0.000353530276661
-4.2802668788e-05
-0.00034469412286
-4.5076884504e-05
-0.000335429869259
-4.73686923444e-05
-0.000325733829671
-4.96712754042e-05
-0.000315604829971
-5.19743561366e-05
-0.000305045175133
-5.42643754048e-05
-0.000294061557115
-5.65249891434e-05
-0.000282665802241
-5.87379371606e-05
-0.000270875399885
-6.08842418132e-05
-0.000258713695165
-6.29458018903e-05
-0.000246209720053
-6.49072410389e-05
-0.000233397603554
-6.67580312872e-05
-0.000220315486885
-6.84948431605e-05
-0.000207004058192
-7.01238211849e-05
-0.000193504787311
-7.16628938426e-05
-0.00017985699046
-7.31449478651e-05
-0.000166096187484
-7.46175532329e-05
-0.000152250706577
-7.61469490379e-05
-0.000138336457162
-7.7820333039e-05
-0.000124355564004
-7.97386026417e-05
-0.000110293225034
-8.20157159628e-05
-9.61063740399e-05
-8.4779122737e-05
-8.17138394053e-05
-8.81414302746e-05
-6.69805346994e-05
-9.21543542412e-05
-5.16947260542e-05
-9.66973746671e-05
-3.55159815882e-05
-0.000101221636576
-1.80568972196e-05
-0.000103666748343
-9.62945023395e-05
-3.47864230265e-05
7.81560017884e-05
-6.61374446284e-05
0.00010583358377
-9.50082903674e-05
0.000126219053398
-0.000121893015377
0.000141687773543
-0.000146951648497
0.000151897944039
-0.000170304243521
0.000157374062045
-0.000192123837954
0.000158733803663
-0.000212513967732
0.000156801864289
-0.000231547928006
0.000152368098888
-0.000249294725737
0.000146137659435
-0.000265825750892
0.000138707802569
-0.000281214377554
0.000130560303508
-0.00029553224762
0.000122066736012
-0.000308845531701
0.000113500852032
-0.000321212609251
0.000105054660376
-0.000332683425251
9.68552462965e-05
-0.000343300132019
8.89803665143e-05
-0.000353098426739
8.14717505197e-05
-0.000362109069911
7.43457632185e-05
-0.000370359250624
6.76015580851e-05
-0.000377873644458
6.12270915564e-05
-0.000384675140246
5.52034415386e-05
-0.000390785285291
4.95078454519e-05
-0.000396224526451
4.41158024568e-05
-0.000401012323828
3.90025045394e-05
-0.000405167198464
3.4143789382e-05
-0.000408706757004
2.95167525798e-05
-0.000411647724526
2.51001200407e-05
-0.000414006009559
2.08744574858e-05
-0.000415796796557
1.68222590773e-05
-0.000417034594947
1.29279051396e-05
-0.000417733256219
9.17747990686e-06
-0.000417906438443
5.55863218193e-06
-0.00041756902287
2.06109442877e-06
-0.000416737520143
-1.32134539003e-06
-0.00041542485427
-4.59000181711e-06
-0.000413642216409
-7.75108691764e-06
-0.000411402824305
-1.08158295963e-05
-0.000408718455747
-1.37929214533e-05
-0.000405600231747
-1.66905406997e-05
-0.000402058672097
-1.95166288851e-05
-0.000398103598115
-2.22791646125e-05
-0.000393743971262
-2.49863684995e-05
-0.000388987699018
-2.76468493388e-05
-0.000383841421057
-3.02696814908e-05
-0.000378310288407
-3.28644003534e-05
-0.000372397753261
-3.54409007548e-05
-0.000366105393686
-3.80092234539e-05
-0.000359432803473
-4.05792185658e-05
-0.000352377581907
-4.31600823679e-05
-0.000344935459303
-4.57597760585e-05
-0.000337100592143
-4.83843494257e-05
-0.000328866054595
-5.10372105555e-05
-0.000320224536796
-5.37184066032e-05
-0.000311169241788
-5.64239917237e-05
-0.00030169495383
-5.91455678199e-05
-0.000291799211022
-6.18701034728e-05
-0.000281483527218
-6.45800638154e-05
-0.000270754601042
-6.72539199846e-05
-0.000259625323933
-6.98672189986e-05
-0.000248115607235
-7.23939632866e-05
-0.000236252786917
-7.48086270337e-05
-0.000224071646201
-7.70883866247e-05
-0.000211614009649
-7.9215672755e-05
-0.00019892771616
-8.11811416174e-05
-0.00018606506287
-8.29864794922e-05
-0.000173081728142
-8.46462336458e-05
-0.000160032407975
-8.61942731803e-05
-0.000146970506778
-8.76794596375e-05
-0.000133945442656
-8.91720184748e-05
-0.000120993682839
-9.07720982697e-05
-0.000108138181121
-9.25941099474e-05
-9.53899848782e-05
-9.47639179828e-05
-8.27314817353e-05
-9.74376318987e-05
-7.01065386387e-05
-0.0001007663797
-5.73999954083e-05
-0.000104860903751
-4.44025107583e-05
-0.000109694865659
-3.07297801827e-05
-0.000114894374371
-1.5784787513e-05
-0.000118611745347
-0.000112079295314
-3.41606427485e-05
0.000112316652439
-6.58079045452e-05
0.000137480844768
-9.47009404304e-05
0.000155112086623
-0.00012109402533
0.000168080855432
-0.000145217356666
0.000176021272422
-0.000167301755486
0.000179458458062
-0.000187591360598
0.000179023406089
-0.000206290124278
0.000175500625337
-0.000223571591359
0.000169649563331
-0.000239586792834
0.00016215285822
-0.000254465878694
0.000153586885662
-0.000268318136583
0.000144412558537
-0.000281232093881
0.000134980690355
-0.000293276940802
0.000125545695902
-0.000304505286159
0.000116283002597
-0.000314956683403
0.000107306640321
-0.000324661235894
9.86849157143e-05
-0.000333642752019
9.04532632886e-05
-0.000341921180175
8.26241879644e-05
-0.000349514282635
7.51946570843e-05
-0.000356438652741
6.81514581596e-05
-0.000362710242093
6.14750273484e-05
-0.00036834456744
5.5142167219e-05
-0.00037335673853
4.9127969928e-05
-0.000377761409061
4.34071714098e-05
-0.000381572715081
3.79550916931e-05
-0.000384804234478
3.2748268213e-05
-0.000387468984811
2.77648665497e-05
-0.000389579474741
2.29849435267e-05
-0.000391147798853
1.83905792322e-05
-0.000392185672282
1.39657745333e-05
-0.000392704358308
9.69616181055e-06
-0.000392715117281
5.56938690532e-06
-0.00039223083305
1.57680594245e-06
-0.000391265433506
-2.28674915839e-06
-0.000389831519396
-6.0239200939e-06
-0.000387939921308
-9.6426891216e-06
-0.000385602138998
-1.31536159781e-05
-0.000382829584848
-1.65654796404e-05
-0.000379633606815
-1.98865227392e-05
-0.000376025358306
-2.31248813794e-05
-0.000372015610247
-2.6288916639e-05
-0.000367614519929
-2.9387462777e-05
-0.000362831364744
-3.24300084805e-05
-0.000357674246742
-3.54268034583e-05
-0.000352149778412
-3.83888726653e-05
-0.000346262768185
-4.1327914992e-05
-0.000340015933721
-4.42560619687e-05
-0.000333409680642
-4.71854757481e-05
-0.000326441992493
-5.0127774683e-05
-0.000319108481079
-5.30932917165e-05
-0.000311402644912
-5.60901899192e-05
-0.000303316380591
-5.91234792984e-05
-0.000294840767561
-6.21940241474e-05
-0.000285967115838
-6.52976480603e-05
-0.000276688266623
-6.84244217353e-05
-0.000267000038305
-7.15583365753e-05
-0.000256902738164
-7.46773688073e-05
-0.000246402802152
-7.77538609037e-05
-0.000235514058957
-8.07559671431e-05
-0.000224258976475
-8.36490507531e-05
-0.000212669279326
-8.63983292044e-05
-0.000200786157473
-8.89715135314e-05
-0.000188660087194
-9.1341748136e-05
-0.000176349939937
-9.34912940299e-05
-0.000163920669808
-9.54157548348e-05
-0.000151444250889
-9.71226578713e-05
-0.000138991927713
-9.86466017099e-05
-0.000126635226464
-0.000100036166387
-0.00011444686375
-0.000101360386767
-0.000102485726839
-0.000102733240956
-9.07921023651e-05
-0.00010428774035
-7.94008837518e-05
-0.000106155142776
-6.83171925323e-05
-0.000108521329594
-5.75074111953e-05
-0.000111576167682
-4.68797096305e-05
-0.000115488612196
-3.62453170987e-05
-0.000120329264553
-2.52453706388e-05
-0.00012589432602
-1.31345979298e-05
-0.000130722527571
-0.000125213895172
-3.28672769112e-05
0.000145183920272
-6.36111940561e-05
0.000168224758853
-9.16997804186e-05
0.000183200670497
-0.000117166516027
0.000193547588516
-0.000140202508191
0.000199057262076
-0.000161062336053
0.000200318283466
-0.000180020320515
0.000197981388147
-0.00019733144816
0.000192811750592
-0.000213222323739
0.0001855404365
-0.000227887178137
0.000176817710155
-0.000241485487719
0.000167185192705
-0.000254142482408
0.000157069550599
-0.000265952224899
0.000146790430126
-0.000276982681751
0.00013657614994
-0.000287281692661
0.000126582010602
-0.000296882780813
0.000116907725483
-0.000305810072782
0.000107612204617
-0.000314082006744
9.87251941138e-05
-0.000321713840306
9.0256018329e-05
-0.000328719164045
8.21999775714e-05
-0.000335110695903
7.4542986718e-05
-0.000340900617627
6.72649457295e-05
-0.000346100660311
6.03422065162e-05
-0.000350722082595
5.37493887798e-05
-0.000354775629116
4.74607144474e-05
-0.000358271514252
4.14509732869e-05
-0.000361219445897
3.56961962463e-05
-0.000363628687541
3.01741045069e-05
-0.000365508160082
2.48644122992e-05
-0.000366866590789
1.9749006084e-05
-0.000367712637047
1.48118168289e-05
-0.000368054746356
1.003826702e-05
-0.000367901041288
5.4156776795e-06
-0.0003672613986
9.371589951e-07
-0.000366149066637
-3.39908531721e-06
-0.000364576124702
-7.5968661478e-06
-0.000362551659949
-1.16671579386e-05
-0.000360086269243
-1.56190106998e-05
-0.000357191344388
-1.94604084797e-05
-0.000353878812927
-2.31990581578e-05
-0.00035016086704
-2.68428312085e-05
-0.000346049691337
-3.04000962746e-05
-0.00034155716401
-3.38799940402e-05
-0.000336694518392
-3.7292658046e-05
-0.000331471960153
-4.0649365672e-05
-0.000325898245463
-4.39625913641e-05
-0.000319980238286
-4.7245926234e-05
-0.000313722479181
-5.05138252018e-05
-0.000307126812689
-5.37811464504e-05
-0.00030019213417
-5.70624575064e-05
-0.000292914325154
-6.0371105142e-05
-0.000285286440781
-6.3718078815e-05
-0.00027729922349
-6.71107012262e-05
-0.000268941988172
-7.05512642148e-05
-0.000260203832334
-7.40358087524e-05
-0.000251075227762
-7.75530312508e-05
-0.000241549824604
-8.10837447533e-05
-0.000231626194754
-8.46010037259e-05
-0.000221310193641
-8.8069867129e-05
-0.000210616330887
-9.14498350284e-05
-0.000199569680278
-9.4695706526e-05
-0.000188206680142
-9.77613345325e-05
-0.000176575496561
-0.000100602702341
-0.000164736068921
-0.000103181181083
-0.000152759872109
-0.000105467496201
-0.000140725196366
-0.000107450436067
-0.000128722718174
-0.00010912514163
-0.000116842899751
-0.000110526425845
-0.000105175101758
-0.00011170397019
-9.38166923664e-05
-0.000112718802136
-8.28565153145e-05
-0.000113693424196
-7.23514822574e-05
-0.000114792779823
-6.23592863568e-05
-0.000116147345371
-5.29074198648e-05
-0.000117973202999
-4.3982345402e-05
-0.000120501249299
-3.55146191748e-05
-0.000123956345269
-2.73375733943e-05
-0.000128506317202
-1.91561476073e-05
-0.00013407575938
-1.01521076023e-05
-0.000139726570926
-0.000135366008522
-3.10828152837e-05
0.000176266744316
-6.0379361347e-05
0.000197521306061
-8.71852071546e-05
0.000210006515314
-0.000111431947836
0.000217794327486
-0.000133266445736
0.000220891758016
-0.000152927998736
0.000219979834433
-0.000170690889244
0.00021574427659
-0.000186825321576
0.000208946180831
-0.000201576279968
0.000200291392749
-0.000215152652418
0.000190394080401
-0.00022772252218
0.000179755060186
-0.000239414231216
0.000168761257268
-0.000250321359283
0.000157697555735
-0.000260509764266
0.000146764552376
-0.000270024937814
0.000136097181514
-0.000278898473598
0.000125781258547
-0.000287153070953
0.000115866799174
-0.000294806005613
0.000106378125905
-0.000301871302488
9.73213122738e-05
-0.000308360960472
8.868963257e-05
-0.000314285569455
8.04675926674e-05
-0.000319654589844
7.26339630389e-05
-0.00032447648021
6.51640937573e-05
-0.000328758784048
5.80316894401e-05
-0.000332508231204
5.12101583662e-05
-0.000335730873909
4.46736126821e-05
-0.000338432255815
3.83975747594e-05
-0.000340617598614
3.23594438165e-05
-0.000342291993133
2.65388032306e-05
-0.000343460603283
2.09176125378e-05
-0.000344128905321
1.54801150288e-05
-0.000344302723435
1.02120811345e-05
-0.000343987112662
5.10006272598e-06
-0.000343184833887
1.34876071585e-07
-0.000341911090069
-4.67283322714e-06
-0.000340180898768
-9.32706147384e-06
-0.00033799912979
-1.38489308812e-05
-0.000335375618589
-1.82425258268e-05
-0.000332322022044
-2.25140089172e-05
-0.000328851148436
-2.66699356426e-05
-0.000324976538702
-3.07174448098e-05
-0.000320712138483
-3.4664500369e-05
-0.000316071959513
-3.85201768998e-05
-0.000311069689163
-4.22949323221e-05
-0.000305718229295
-4.6000829509e-05
-0.000300029162136
-4.96516625618e-05
-0.000294012158723
-5.32629337622e-05
-0.000287674367246
-5.68516208951e-05
-0.000281019839097
-6.04356789282e-05
-0.000274049072149
-6.40332289094e-05
-0.000266758775093
-6.76614067874e-05
-0.000259141929302
-7.1334929327e-05
-0.00025118826136
-7.50643740187e-05
-0.000242885264251
-7.88542662928e-05
-0.000234219558552
-8.27015195155e-05
-0.000225178823662
-8.6593771289e-05
-0.000215754185092
-9.05083885155e-05
-0.000205941790912
-9.44134031453e-05
-0.000195746640943
-9.82650223493e-05
-0.000185183529253
-0.000102012952001
-0.000174280113988
-0.000105599127115
-0.000163077801021
-0.000108963652852
-0.000151632207454
-0.000112048301385
-0.00014001313033
-0.000114800263749
-0.000128306316149
-0.000117174316111
-0.000116603751796
-0.000119153006283
-0.000105015644031
-0.000120713255406
-9.36571472235e-05
-0.000121884928784
-8.26370801044e-05
-0.000122724043537
-7.20732488241e-05
-0.000123282639891
-6.20965691939e-05
-0.000123670110426
-5.27852533007e-05
-0.000124104102585
-4.42187371558e-05
-0.000124713868528
-3.64504706187e-05
-0.000125741476796
-2.9487821428e-05
-0.000127463905784
-2.32819916697e-05
-0.000130162182405
-1.76856216738e-05
-0.000134102693409
-1.24711900922e-05
-0.000139290195801
-6.8370237511e-06
-0.000145360747821
-0.000142203033531
-2.90171227167e-05
0.000205283861384
-5.65904656969e-05
0.000225094647898
-8.18707901561e-05
0.00023528683883
-0.000104739291491
0.000240662827582
-0.0001253100036
0.000241462468666
-0.000143796936536
0.000238466765782
-0.000160458279474
0.000232405617861
-0.000175557248138
0.000224045147757
-0.000189335040757
0.000214069183563
-0.000201996953933
0.000203055991695
-0.000213706905435
0.000191465009726
-0.000224589073465
0.00017964342325
-0.000234733764511
0.000167842244644
-0.00024420499229
0.000156235777928
-0.000253047825018
0.000144940011929
-0.000261294419225
0.000134027850358
-0.000268968402053
0.000123540779531
-0.000276087747355
0.000113497468667
-0.000282666508233
0.000103900070551
-0.000288715798412
9.47389200974e-05
-0.00029424434697
8.59961385259e-05
-0.000299258852429
7.76484657551e-05
-0.000303764271496
6.96695100322e-05
-0.000307764108941
6.20315240373e-05
-0.000311260729993
5.47067765001e-05
-0.000314255692404
4.76685720916e-05
-0.000316750087089
4.08919663385e-05
-0.000318744875434
3.43542289444e-05
-0.000320241190745
2.80351152029e-05
-0.000321240564514
2.19169828207e-05
-0.000321745078769
1.59846256038e-05
-0.00032175767357
1.02246720766e-05
-0.000321283418371
4.62580354589e-06
-0.00032033135115
-8.17195226048e-07
-0.00031890409946
-6.10008887719e-06
-0.000317004209176
-1.12269556313e-05
-0.000314643691092
-1.62094527846e-05
-0.000311834204539
-2.10520161567e-05
-0.000308588527567
-2.5759689649e-05
-0.000304920584644
-3.0337882313e-05
-0.000300845318641
-3.47927145721e-05
-0.000296378470028
-3.91313527602e-05
-0.000291536278659
-4.33623720914e-05
-0.000286335090588
-4.74961242682e-05
-0.000280790849962
-5.15450740932e-05
-0.000274918465894
-5.55240506786e-05
-0.000268731063443
-5.94503403828e-05
-0.000262239159254
-6.33435293825e-05
-0.000255449833258
-6.72250093689e-05
-0.000248365986042
-7.1117080724e-05
-0.000240985856799
-7.50415407788e-05
-0.000233302883825
-7.90179071916e-05
-0.000225306017848
-8.30612450169e-05
-0.000216980983769
-8.71793054897e-05
-0.000208311758211
-9.13707502873e-05
-0.000199282768599
-9.56227661546e-05
-0.000189882614571
-9.99085478539e-05
-0.000180104083168
-0.00010419193988
-0.000169951285601
-0.000108417825277
-0.000159438800725
-0.000112525442316
-0.000148596828274
-0.000116441105056
-0.000137471891732
-0.000120088595043
-0.000126127475055
-0.000123392723849
-0.000114643094525
-0.00012628465024
-0.000103119750812