/*--------------------------------*- C++ -*----------------------------------*\
| =========                 |                                                 |
| \\      /  F ield         | OpenFOAM: The Open Source CFD Toolbox           |
|  \\    /   O peration     | Version:  v1806                                 |
|   \\  /    A nd           | Web:      www.OpenFOAM.com                      |
|    \\/     M anipulation  |                                                 |
\*---------------------------------------------------------------------------*/
FoamFile
{
    version     2.0;
    format      ascii;
    class       surfaceScalarField;
    location    "900";
    object      phi;
}
// * * * * * * * * * * * * * * * * * * * * * * * * * * * * * * * * * * * * * //

dimensions      [0 3 -1 0 0 0 0];
oriented        oriented;


internalField   nonuniform List<scalar> 
12640
(
2.365490575e-05
-2.36549057355e-05
3.42202973945e-05
-1.05653917583e-05
3.70940019551e-05
-2.87370468191e-06
2.75544315622e-05
9.53957029077e-06
5.44613643587e-06
2.21082950057e-05
-2.70470817332e-05
3.24932180046e-05
-5.94678095117e-05
3.24207276217e-05
-9.11778977015e-05
3.17100880321e-05
-0.000122309005518
3.11311076612e-05
-0.000152586932804
3.02779271339e-05
-0.000181719400704
2.91324677539e-05
-0.00020948047674
2.77610758956e-05
-0.00023571765811
2.62371812363e-05
-0.000260343603019
2.46259447809e-05
-0.000283323936467
2.29803333256e-05
-0.000304664930794
2.13409942073e-05
-0.000324402413196
1.97374822868e-05
-0.000342592390945
1.81899776357e-05
-0.000359303490533
1.67110994768e-05
-0.000374611105308
1.53076146641e-05
-0.00038859304481
1.39819393923e-05
-0.000401326439008
1.27333940877e-05
-0.000412885648657
1.15592095377e-05
-0.000423340953514
1.04553047454e-05
-0.000432757821487
9.41686785772e-06
-0.000441196596474
8.43877487082e-06
-0.000448712475556
7.5158789625e-06
-0.000455355674846
6.64319916779e-06
-0.000461171706635
5.81603166105e-06
-0.000466201707619
5.03000085355e-06
-0.000470482771413
4.28106365772e-06
-0.000474048253197
3.56548164406e-06
-0.000476927993341
2.87973999751e-06
-0.000479148279942
2.22028645046e-06
-0.000480731481818
1.58320171691e-06
-0.000481696149394
9.64667413857e-07
-0.000482055613573
3.59464011558e-07
-0.000481819009926
-2.3660381736e-07
-0.000480994545374
-8.24464727157e-07
-0.000479594179594
-1.40036595663e-06
-0.000477633963935
-1.96021583965e-06
-0.000475129629929
-2.50433418676e-06
-0.000472095378575
-3.0342515397e-06
-0.000468543464242
-3.55191451783e-06
-0.000464484074068
-4.05939036417e-06
-0.000459925315966
-4.55875829076e-06
-0.000454873258932
-5.05205722719e-06
-0.000449332014701
-5.54124442328e-06
-0.000443303866132
-6.02814876576e-06
-0.000436789452472
-6.51441385479e-06
-0.000429788021246
-7.00143142678e-06
-0.000422297752862
-7.49026858351e-06
-0.000414316158107
-7.9815949598e-06
-0.000405840540711
-8.47561759855e-06
-0.000396868507799
-8.97203312097e-06
-0.000387398500596
-9.47000741009e-06
-0.000377430307249
-9.96819355992e-06
-0.000366965509697
-1.04647977635e-05
-0.000356007808434
-1.095770148e-05
-0.000344563162563
-1.14446460864e-05
-0.00033263967839
-1.19234843934e-05
-0.000320247178572
-1.23925000368e-05
-0.000307396385443
-1.28507933516e-05
-0.000294097656735
-1.32987289285e-05
-0.00028035922099
-1.37384359691e-05
-0.000266184869464
-1.41743517464e-05
-0.000251571072786
-1.46137969031e-05
-0.000236503524731
-1.50675482749e-05
-0.000220953169556
-1.55503553981e-05
-0.000204871834269
-1.60813355068e-05
-0.000188187807558
-1.66840269322e-05
-0.00017080191813
-1.73858896496e-05
-0.0001525851126
-1.8216805753e-05
-0.000133381077942
-1.92040348859e-05
-0.000113023689928
-2.0357388248e-05
-9.13811403609e-05
-2.16425498112e-05
-6.84165308158e-05
-2.29646097801e-05
-4.42671151264e-05
-2.41494159483e-05
-1.98157220144e-05
-2.44513934777e-05
-1.98157222333e-05
1.24414069571e-05
-3.60963135402e-05
1.03516910532e-05
-8.47567628603e-06
-9.78428455332e-06
1.72622707965e-05
-3.90095432914e-05
3.87648289689e-05
-6.71008632862e-05
5.01996149225e-05
-9.4091078818e-05
5.94834334335e-05
-0.000124144696033
6.24743447226e-05
-0.000155271833611
6.28372254847e-05
-0.000186130224542
6.19894984685e-05
-0.000216091077932
6.02387803964e-05
-0.000244776080688
5.78174703862e-05
-0.000271939832806
5.4924827889e-05
-0.000297433525445
5.17308737564e-05
-0.000321182331111
4.83747503263e-05
-0.000343167490425
4.4965492525e-05
-0.000363411291669
4.15847953351e-05
-0.00038196461668
3.82908071865e-05
-0.000398896910977
3.51222718179e-05
-0.000414288378733
3.21025671233e-05
-0.000428224129925
2.92433657411e-05
-0.000440789966615
2.65477759734e-05
-0.000452069491658
2.40129190132e-05
-0.000462142245802
2.16319635707e-05
-0.000471082617747
1.93956765696e-05
-0.000478959315439
1.72935654333e-05
-0.000485835230513
1.53146898188e-05
-0.000491767565983
1.34482143114e-05
-0.000496808129279
1.16837623299e-05
-0.000501003718415
1.00116206676e-05
-0.00050439655241
8.42283470492e-06
-0.000507024714095
6.90922520398e-06
-0.00050892257509
5.46334248466e-06
-0.000510121170758
4.07833551514e-06
-0.000510648405549
2.74752107522e-06
-0.000510528455673
1.46325167836e-06
-0.000509780941282
2.1715284524e-07
-0.000508433524505
-9.87952936861e-07
-0.00050652430113
-2.14582737827e-06
-0.000504088300029
-3.26046600564e-06
-0.0005011501432
-4.33852297823e-06
-0.000497724782527
-5.3855766953e-06
-0.000493823537112
-6.40557979892e-06
-0.000489455607716
-7.40218112264e-06
-0.000484628545572
-8.37897686331e-06
-0.000479348368075
-9.3395680515e-06
-0.000473619573472
-1.02875530995e-05
-0.00046744514129
-1.12264896029e-05
-0.000460826555816
-1.21598301065e-05
-0.000453763873528
-1.30908312508e-05
-0.000446255850132
-1.40224374638e-05
-0.000438300138588
-1.49571431714e-05
-0.000429893565718
-1.58968416716e-05
-0.000421032488477
-1.68426724052e-05
-0.000411713223909
-1.77948823876e-05
-0.00040193253698
-1.87527202595e-05
-0.000391688160888
-1.97143837278e-05
-0.00038097931331
-2.06770413523e-05
-0.000369807162768
-2.16369485354e-05
-0.000358175190993
-2.25896734738e-05
-0.00034608939219
-2.35304451242e-05
-0.000333558245572
-2.44546312332e-05
-0.000320592398245
-2.53583476005e-05
-0.000307203998708
-2.62391931132e-05
-0.000293405626952
-2.7097100922e-05
-0.000279208779696
-2.79352834507e-05
-0.000264621883472
-2.8761248206e-05
-0.000249647815795
-2.95878648036e-05
-0.00023428093584
-3.04344284612e-05
-0.000218503724785
-3.13275666721e-05
-0.000202283058991
-3.23020015258e-05
-0.000185566330155
-3.3400755983e-05
-0.000168277945292
-3.467427473e-05
-0.000150317051426
-3.61776998288e-05
-0.000131558370726
-3.79627157962e-05
-0.000111858810249
-4.00569489328e-05
-9.10728657777e-05
-4.24284944881e-05
-6.90996164495e-05
-4.49378593112e-05
-4.60727900013e-05
-4.71762425863e-05
-2.27822663592e-05
-4.77419173408e-05
-4.25979887382e-05
-9.47970117791e-06
-2.66166116395e-05
-3.19133521922e-05
1.39579748745e-05
-5.72503890129e-05
4.25993076631e-05
-8.16247617909e-05
6.31392017336e-05
-0.000108496448331
7.70713014064e-05
-0.000135138140917
8.61251259406e-05
-0.000162798128641
9.01343323568e-05
-0.000190883774518
9.09228712683e-05
-0.000218520508036
8.96262318883e-05
-0.000245144449939
8.68627222005e-05
-0.000270413438009
8.30864583547e-05
-0.000294131049312
7.8642439091e-05
-0.000316200861524
7.38006858653e-05
-0.00033659647622
6.87703649198e-05
-0.000355339935631
6.3708951832e-05
-0.000372485390698
5.87302502989e-05
-0.000388106700103
5.39121164867e-05
-0.000402288215409
4.93037870194e-05
-0.000415118170927
4.49325225334e-05
-0.000426684153027
4.08093477332e-05
-0.000437070172412
3.69337952479e-05
-0.000446354925904
3.3297672394e-05
-0.000454610907307
2.98879448585e-05
-0.000461904100226
2.66888693724e-05
-0.000468294052157
2.36835172438e-05
-0.000473834184714
2.08548222529e-05
-0.000478572237989
1.81862674575e-05
-0.00048255077837
1.56623025799e-05
-0.000485807723409
1.32685655689e-05
-0.000488376865401
1.09919765553e-05
-0.000490288394788
8.82075444172e-06
-0.000491569367098
6.74431464214e-06
-0.000492243936891
4.75290514598e-06
-0.000492333575982
2.83716000063e-06
-0.00049185893705
9.88612570498e-07
-0.000490843459688
-7.98324691967e-07
-0.000489310706337
-2.52070647071e-06
-0.000487276322242
-4.18021165554e-06
-0.000484750906254
-5.78588218268e-06
-0.000481745731906
-7.34369751353e-06
-0.000478271921876
-8.85938691954e-06
-0.000474339386645
-1.03381152217e-05
-0.000469956688848
-1.17848791184e-05
-0.000465131009922
-1.32046559849e-05
-0.000459868114717
-1.46024634591e-05
-0.000454172308619
-1.5983359397e-05
-0.000448046404266
-1.7352394162e-05
-0.000441491717233
-1.87145173422e-05
-0.000434508109344
-2.00744393499e-05
-0.00042709409662
-2.14364503947e-05
-0.000419247036542
-2.28042034631e-05
-0.000410963405142
-2.41804732834e-05
-0.000402239168456
-2.55669093105e-05
-0.000393070244579
-2.69638064814e-05
-0.000383453042581
-2.83699224823e-05
-0.000373385053106
-2.97823734249e-05
-0.000362865453819
-3.11966408705e-05
-0.000351895681423
-3.26067211597e-05
-0.000340479913781
-3.40054413522e-05
-0.000328625401541
-3.53849575983e-05
-0.00031634258348
-3.67374495349e-05
-0.000303644919963
-3.80560113546e-05
-0.000290548388843
-3.93357244751e-05
-0.000277070588227
-4.05749017752e-05
-0.000263229413509
-4.17764584097e-05
-0.000249041290629
-4.29493713198e-05
-0.000234518976889
-4.41101787787e-05
-0.000219668846405
-4.52845591729e-05
-0.000204487934744
-4.65084785608e-05
-0.000188960573993
-4.7829362495e-05
-0.000173054665699
-4.93066644923e-05
-0.000156718255265
-5.10106853706e-05
-0.000139876570158
-5.30193851372e-05
-0.000122429438707
-5.54098474417e-05
-0.000104249553838
-5.82368339905e-05
-8.51880214702e-05
-6.14900270403e-05
-6.51087927826e-05
-6.50170881636e-05
-4.39700989989e-05
-6.83149365333e-05
-2.20408486745e-05
-6.96711678541e-05
-6.46388375075e-05
-2.81067835634e-05
1.49017094171e-06
-5.56446765016e-05
4.1495867739e-05
-8.13763343424e-05
6.83309655048e-05
-0.000106937884055
8.87007514202e-05
-0.00013274582117
0.000102879238473
-0.000158272319506
0.000111651624214
-0.000183684021548
0.000115546034331
-0.000208695113435
0.000115933963083
-0.000232888067582
0.00011381918596
-0.000255947794548
0.000109922449088
-0.000277674520872
0.000104813184599
-0.000297966282549
9.89342006853e-05
-0.000316793096401
9.2627499632e-05
-0.000334173869352
8.61511377824e-05
-0.000350158216723
7.96932991141e-05
-0.000364812967389
7.33850008724e-05
-0.000378212651861
6.73118008647e-05
-0.000390433175464
6.15243105254e-05
-0.000401547905415
5.60472523856e-05
-0.000411625488475
5.08869306913e-05
-0.000420728838795
4.60371454645e-05
-0.000428914868462
4.14837019535e-05
-0.000436234655876
3.72077321635e-05
-0.000442733847935
3.31880613175e-05
-0.000448453167705
2.94028368978e-05
-0.000453428952137
2.58306065629e-05
-0.000457693678489
2.24509936848e-05
-0.000461276458038
1.92450819967e-05
-0.000464203487502
1.61955948976e-05
-0.000466498466312
1.3286955222e-05
-0.000468183005055
1.0505293038e-05
-0.000469276986116
7.83829554708e-06
-0.000469798641619
5.27456048674e-06
-0.00046976441632
2.80293453178e-06
-0.000469190723353
4.1491942973e-07
-0.000468099870148
-1.88917807694e-06
-0.000466509795654
-4.11078114546e-06
-0.000464431029758
-6.25897773619e-06
-0.000461876003863
-8.34090826319e-06
-0.000458856358099
-1.03633434678e-05
-0.000455382948747
-1.23327964619e-05
-0.000451465538135
-1.42555260286e-05
-0.000447112694134
-1.61377233134e-05
-0.000442331710546
-1.79856397714e-05
-0.000437128521794
-1.98056524093e-05
-0.000431507614997
-2.16042663971e-05
-0.000425471954152
-2.33880552082e-05
-0.000419022935283
-2.5163536418e-05
-0.00041216039281
-2.69369820294e-05
-0.000404882677814
-2.87141656033e-05
-0.000397186827242
-3.05000542465e-05
-0.000389068839707
-3.22984610362e-05
-0.000380524067112
-3.41116821244e-05
-0.000371547722395
-3.59401514226e-05
-0.000362135492105
-3.77821529989e-05
-0.000352284229165
-3.96336365982e-05
-0.000341992687393
-4.14881828767e-05
-0.000331262245488
-4.33371633056e-05
-0.000320097556722
-4.51701303604e-05
-0.000308507062096
-4.69754524712e-05
-0.000296503296674
-4.87412152035e-05
-0.000284102910078
-5.04563982014e-05
-0.000271326357865
-5.21122769358e-05
-0.000258197188301
-5.37040715881e-05
-0.000244740917456
-5.52327294991e-05
-0.000230983430347
-5.67068586727e-05
-0.000216949103656
-5.81445057056e-05
-0.000202658153976
-5.95755090862e-05
-0.000188124075175
-6.10425575871e-05
-0.00017335062523
-6.26028126593e-05
-0.000158327966677
-6.43293232568e-05
-0.000143029312317
-6.63093399332e-05
-0.000127407406908
-6.86412907401e-05
-0.000111388984685
-7.14282698494e-05
-9.48670865436e-05
-7.47587323072e-05
-7.76973348029e-05
-7.86597789447e-05
-5.97106963469e-05
-8.30037267797e-05
-4.0692042975e-05
-8.73335900469e-05
-2.05835656008e-05
-8.97796453661e-05
-8.5222403183e-05
-3.64729787286e-05
3.79631506562e-05
-6.5709840397e-05
7.07327295583e-05
-9.328307081e-05
9.59041959284e-05
-0.000119640042173
0.000115057722751
-0.000144918131319
0.000128157327571
-0.000169137472096
0.000135870964938
-0.000192472358729
0.000138880920908
-0.000214848930723
0.000138310535021
-0.000236125599053
0.000135095854231
-0.000256197246884
0.000129994096858
-0.000275008164708
0.000123624102359
-0.000292549452941
0.000116475488851
-0.000308846875363
0.000108924921984
-0.00032394760872
0.000101251871065
-0.000337909316261
9.36550065781e-05
-0.000350792483218
8.62681677495e-05
-0.000362655752644
7.91750702079e-05
-0.000373553549806
7.24221076017e-05
-0.000383535229219
6.60289317083e-05
-0.00039264510447
5.99968058496e-05
-0.000400922903418
5.4314944317e-05
-0.000408404363188
4.89651616237e-05
-0.000415121811943
4.39251808151e-05
-0.000421104672964
3.91709222313e-05
-0.0004263798776
3.46780414225e-05
-0.00043097219801
3.04229268565e-05
-0.000434904519162
2.63833147146e-05
-0.000438198070578
2.25386332859e-05
-0.000440872636062
1.88701602477e-05
-0.000442946751482
1.53610705024e-05
-0.000444437895511
1.19964369197e-05
-0.000445362676997
8.76307687887e-06
-0.000445737005669
5.648888996e-06
-0.000445576207049
2.64213574201e-06
-0.000444895523925
-2.65763869878e-07
-0.000443714319509
-3.07038266981e-06
-0.000442049505946
-5.77559488924e-06
-0.000439912147755
-8.39633611001e-06
-0.0004373139533
-1.09391029036e-05
-0.000434266185298
-1.34111116558e-05
-0.000430779503097
-1.58194788534e-05
-0.000426863737413
-1.81712919033e-05
-0.000422527726779
-2.04737341413e-05
-0.000417779167756
-2.27341989891e-05
-0.000412624464416
-2.49603559474e-05
-0.000407068578729
-2.71601522828e-05
-0.000401114894255
-2.93417398851e-05
-0.000394765112056
-3.15133188222e-05
-0.000388019202004
-3.368289229e-05
-0.0003808754349
-3.58579329185e-05
-0.00037333052083
-3.80449685321e-05
-0.000365379876451
-4.0249105635e-05
-0.000357018037425
-4.24735213758e-05
-0.000348239221705
-4.47189673714e-05
-0.000339038036038
-4.69833389021e-05
-0.000329410301009
-4.9261371868e-05
-0.000319353952903
-5.15445312294e-05
-0.000308869965074
-5.3821151385e-05
-0.000297963208171
-5.60768875196e-05
-0.000286643183874
-5.82954770256e-05
-0.000274924568775
-6.04598305624e-05
-0.000262827431731
-6.25535355047e-05
-0.000250377148116
-6.45625608097e-05
-0.000237603829342
-6.64773906171e-05
-0.000224541423354
-6.82951357394e-05
-0.000211226062284
-7.00222199884e-05
-0.000197694720279
-7.16758479513e-05
-0.000183982163597
-7.32880660019e-05
-0.000170118775817
-7.49059455941e-05
-0.000156128127702
-7.65934609928e-05
-0.00014202240528
-7.8435045889e-05
-0.00012779910838
-8.05326370345e-05
-0.000113438037019
-8.30023622917e-05
-9.88941893637e-05
-8.59721176827e-05
-8.40865163947e-05
-8.95664054443e-05
-6.88842357377e-05
-9.38620597583e-05
-5.31087881808e-05
-9.87791744707e-05
-3.64512637208e-05
-0.000103991114635
-1.86072704543e-05
-0.000107623638752
-0.000103829673702
-3.62958300306e-05
7.4258980139e-05
-6.83778945309e-05
0.000102814793997
-9.73294018779e-05
0.00012485570325
-0.000123982778323
0.000141711099162
-0.000148692126131
0.000152866675338
-0.000171702126923
0.000158880965689
-0.000193279932129
0.000160458726073
-0.000213536345961
0.00015856694881
-0.000232520509225
0.000154080017452
-0.000250276810895
0.000147750398481
-0.00026685635228
0.000140203643696
-0.000282317955914
0.000131937092433
-0.000296723534665
0.00012333050068
-0.000310133028985
0.000114661365326
-0.000322600900623
0.000106122878153
-0.000334174613824
9.78418808835e-05
-0.000344894697318
8.98951536321e-05
-0.00035479572485
8.2323135059e-05
-0.000363907625692
7.51408324717e-05
-0.000372256934389
6.83461144641e-05
-0.000379867787151
6.19257969936e-05
-0.000386762617255
5.58599916374e-05
-0.000392962584909
5.01251483744e-05
-0.000398487811073
4.46961482961e-05
-0.000403357487571
3.95477178174e-05
-0.000407589922788
3.46553619635e-05
-0.000411202565031
2.99959568429e-05
-0.000414212033579
2.55481017119e-05
-0.000416634179329
2.12923058693e-05
-0.000418484171048
1.72110620845e-05
-0.000419776551853
1.3288817581e-05
-0.000420525268388
9.51179326103e-06
-0.000420744056342
5.86767678853e-06
-0.000420447862957
2.34594218841e-06
-0.000419654117585
-1.0595094168e-06
-0.000418375279216
-4.3492212146e-06
-0.000416621944601
-7.52892968171e-06
-0.000414408272273
-1.06100086191e-05
-0.00041174655262
-1.36008227383e-05
-0.00040864837085
-1.65092936097e-05
-0.00040512472681
-1.93431230799e-05
-0.00040118595907
-2.21100598323e-05
-0.000396841590984
-2.48181024169e-05
-0.000392100140082
-2.74756500845e-05
-0.000386968905901
-3.00915903243e-05
-0.000381453748525
-3.26753098569e-05
-0.000375558874325
-3.52366142864e-05
-0.000369286651448
-3.77855419047e-05
-0.000362637483419
-4.03320605281e-05
-0.000355609773529
-4.28856430226e-05
-0.000348200014256
-4.54547280242e-05
-0.000340403034469
-4.80460856481e-05
-0.00033221243082
-5.06641252561e-05
-0.000323621196269
-5.33102021612e-05
-0.000314622543516
-5.59819919011e-05
-0.000305210899187
-5.86730164504e-05
-0.000295383017528
-6.13724131467e-05
-0.000285139157886
-6.40650112919e-05
-0.000274484209849
-6.67318358247e-05
-0.000263428678645
-6.93510084998e-05
-0.000251989557976
-7.1898951502e-05
-0.000240190713137
-7.4352380613e-05
-0.000228063120571
-7.66901536413e-05
-0.000215644280061
-7.88962313895e-05
-0.000202977800344
-8.09616157125e-05
-0.000190111029483
-8.28889910984e-05
-0.000177095013212
-8.46918644657e-05
-0.00016398009058
-8.64029888706e-05
-0.000150813868062
-8.80721683409e-05
-0.000137640160092
-8.97671691844e-05
-0.000124492722866
-9.15824833282e-05
-0.000111390970563
-9.36343895423e-05
-9.83389486636e-05
-9.60543843818e-05
-8.53177547248e-05
-9.89933118008e-05
-7.22728738667e-05
-0.000102611286462
-5.90922180457e-05
-0.000107042715724
-4.56035271684e-05
-0.000112267865483
-3.14856895852e-05
-0.000118108952321
-1.62425915052e-05
-0.000122866736937
-0.000120072265219
-3.51116457836e-05
0.00010937062669
-6.74792955645e-05
0.000135182443973
-9.66530252222e-05
0.00015402943295
-0.000123027851862
0.000168085925797
-0.000146979146919
0.000176817970373
-0.000168848701282
0.000180750520026
-0.000188958463703
0.000180568488467
-0.000207535208719
0.000177143693799
-0.000224750223112
0.000171295031815
-0.000240745108532
0.00016374528387
-0.00025563930792
0.000155097843049
-0.000269532827505
0.000145830611981
-0.000282506905301
0.000136304578434
-0.000294625262767
0.000126779722748
-0.000305936459298
0.000117434074635
-0.000316477026121
0.000108382447654
-0.000326274764508
9.96928919622e-05
-0.000335351684385
9.14000548754e-05
-0.000343726294838
8.35154428596e-05
-0.000351415183807
7.60350033635e-05
-0.000358433973975
6.89445870886e-05
-0.000364797809388
6.22238269714e-05
-0.000370521534752
5.58488736551e-05
-0.000375619703911
4.97943173678e-05
-0.000380106516667
4.40345304793e-05
-0.000383995746356
3.85445915529e-05
-0.000387300691107
3.33009014871e-05
-0.000390034166184
2.82815766744e-05
-0.000392208551035
2.34666905978e-05
-0.000393835874894
1.88383858134e-05
-0.000394927845116
1.43807876638e-05
-0.000395495814485
1.00797624812e-05
-0.000395551270505
5.92313264798e-06
-0.000395107250494
1.90192200967e-06
-0.000394177583698
-1.98917638372e-06
-0.000392774663207
-5.75214187826e-06
-0.000390909583545
-9.39400951818e-06
-0.000388594382513
-1.29252098273e-05
-0.000385840922063
-1.63542833664e-05
-0.000382660990029
-1.96892258234e-05
-0.000379066198711
-2.29379145805e-05
-0.000375067813798
-2.61084449299e-05
-0.000370676533641
-2.92093827609e-05
-0.00036590223084
-3.22499530759e-05
-0.000360753663108
-3.52401582495e-05
-0.000355238163369
-3.81908097923e-05
-0.000349361326224
-4.11134516329e-05
-0.000343126716899
-4.40201514354e-05
-0.000336535637779
-4.69231398595e-05
-0.000329586995256
-4.98342857639e-05
-0.000322277313318
-5.27644101873e-05
-0.000314600940319
-5.57224588804e-05
-0.000306550491463
-5.8714574354e-05
-0.000298117548989
-6.17431448852e-05
-0.000289293624612
-6.48059165373e-05
-0.000280071368793
-6.78952725363e-05
-0.00027044594154
-7.09978406722e-05
-0.000260416516688
-7.40944364216e-05
-0.000249987757045
-7.71605957477e-05
-0.000239171009834
-8.01677559905e-05
-0.000227985747223
-8.30842143913e-05
-0.00021645991087
-8.58782172407e-05
-0.000204630867197
-8.85191975847e-05
-0.000192544223089
-9.09828757622e-05
-0.000180254945938
-9.32508931226e-05
-0.000167822516885
-9.53214204046e-05
-0.000155314183296
-9.7200198303e-05
-0.000142797837569
-9.89193348394e-05
-0.00013033913103
-0.000100530875119
-0.00011800340586
-0.000102102894584
-0.000105847842658
-0.000103738046757
-9.39129227712e-05
-0.000105569309639
-8.22245908312e-05
-0.000107742716522
-7.07873206075e-05
-0.0001104305822
-5.95706544441e-05
-0.000113827952785
-4.84852878411e-05
-0.00011812808246
-3.73641388539e-05
-0.000123389014576
-2.59311345447e-05
-0.000129541956729
-1.35586635434e-05
-0.000135239207956
-0.000133630928806
-3.36064892034e-05
0.000142977115708
-6.49380798821e-05
0.000166514034705
-9.33452290633e-05
0.000182436582173
-0.000118900407477
0.000193641104226
-0.000141882491791
0.000199800054689
-0.000162626919482
0.000201494947711
-0.000181467397134
0.000199408966112
-0.000198685366883
0.000194361663538
-0.00021451586043
0.000187125525351
-0.000229153158086
0.00017838258151
-0.000242753038301
0.000168697723247
-0.000255435942236
0.000158513515895
-0.000267291201012
0.000148159837186
-0.000278382551933
0.000137871073641
-0.000288754210974
0.000127805733644
-0.000298436649827
0.00011806488647
-0.000307451439631
0.000108707681726
-0.00031581487913
9.97634943297e-05
-0.000323540432135
9.12409958152e-05
-0.000330640183313
8.31347544878e-05
-0.000337125586589
7.54299903056e-05
-0.000343007765311
6.81060056296e-05
-0.000348297569201
6.11386774765e-05
-0.000353005529911
5.45022780026e-05
-0.000357141801302
4.81708017902e-05
-0.000360716128081
4.21189182439e-05
-0.000363737856789
3.63226300996e-05
-0.000366215988634
3.07597084161e-05
-0.000368159276759
2.540997861e-05
-0.000369576363297
2.02554722301e-05
-0.000370475864333
1.52802885666e-05
-0.000370866257634
1.04701556377e-05
-0.00037075603658
5.81291143992e-06
-0.000370155505077
1.301390343e-06
-0.000369077273938
-3.06740769008e-06
-0.00036753311677
-7.29629921302e-06
-0.000365532742711
-1.13943837463e-05
-0.000363087215506
-1.53707372035e-05
-0.000360208337316
-1.92331617289e-05
-0.000356908433363
-2.29891299518e-05
-0.000353200111043
-2.66462370774e-05
-0.0003490960055
-3.02125506523e-05
-0.000344608493701
-3.36968947431e-05
-0.000339749367735
-3.71090792273e-05
-0.000334529463465
-4.04600627102e-05
-0.000328958249091
-4.37620243611e-05
-0.000323043390104
-4.70283108206e-05
-0.000316790320561
-5.02732211863e-05
-0.000310201864303
-5.35115963327e-05
-0.000303277962594
-5.67581876968e-05
-0.000296015572039
-6.00268009753e-05
-0.000288408795641
-6.33292355216e-05
-0.000280449317908
-6.66740523397e-05
-0.000272127179024
-7.00652840321e-05
-0.000263431888748
-7.35012070853e-05
-0.000254353919193
-7.69732423704e-05
-0.000244886375012
-8.0465385137e-05
-0.000235026884794
-8.39539269261e-05
-0.000224779639047
-8.74078417821e-05
-0.000214156450133
-9.079094519e-05
-0.000203179465756
-9.40611990505e-05
-0.000191880668748
-9.71770145261e-05
-0.000180304790062
-0.000100095076543
-0.00016850569336
-0.000102781972734
-0.000156551940333
-0.000105204646414
-0.000144515580447
-0.000107357780556
-0.000132482144873
-0.000109233634136
-0.000120540040138
-0.000110861439834
-0.000108774663907
-0.000112296251602
-9.72735667422e-05
-0.000113603991999
-8.61219814121e-05
-0.000114889632327
-7.53841247423e-05
-0.000116307166539
-6.51072094397e-05
-0.000118019632031
-5.53182190359e-05
-0.000120219572784
-4.60069643471e-05
-0.000123139207613
-3.71114282184e-05
-0.000127023618704
-2.84615881927e-05
-0.000132038854695
-1.98491544282e-05
-0.000138154390521
-1.05837305597e-05
-0.000144504631901
-0.000144214659292
-3.1685390397e-05
0.0001746625068
-6.14736111728e-05
0.000196302255737
-8.85877288843e-05
0.0002095507
-0.00011297112803
0.00021802450343
-0.000134823957717
0.00022165288441
-0.000154440496097
0.000221111486113
-0.000172138509
0.00021710697903
-0.000188212673354
0.000210435827903
-0.000202920263628
0.000201833115632
-0.000216475148241
0.000191937466127
-0.000229046091805
0.000181268666811
-0.000240759875647
0.000170227299734
-0.000251707466584
0.000159107428117
-0.000261951740941
0.000148115347989
-0.000271535208181
0.00013738920087
-0.000280486665562
0.000127016343834
-0.000288826284649
0.000117047300791
-0.000296569107715
0.000107506317369
-0.000303727216214
9.83991042833e-05
-0.000310310937044
8.97184752822e-05
-0.000316329435504
8.14484887247e-05
-0.000321790969705
7.35675397851e-05
-0.000326702994196
6.6050701916e-05
-0.000331072224713
5.88715084623e-05
-0.000334904720007
5.20032970203e-05
-0.000338206000353
4.54201985176e-05
-0.00034098120014
3.90978298065e-05
-0.000343235239511
3.30137476969e-05
-0.000344973004702
2.71477437003e-05
-0.000346199548518
2.14820159356e-05
-0.000346920287996
1.60010279215e-05
-0.000347140925133
1.06907926386e-05
-0.000346866738509
5.53872466306e-06
-0.000346103000589
5.3765226783e-07
-0.00034486301209
-4.30739634826e-06
-0.000343159791668
-8.99951979415e-06
-0.000341000135985
-1.35540395916e-05
-0.000338394416485
-1.79764568661e-05
-0.000335354638872
-2.22729395068e-05
-0.000331893933652
-2.64498353394e-05
-0.000328026185743
-3.05139851566e-05
-0.000323765722319
-3.44730142504e-05
-0.000319126985984
-3.83356312549e-05
-0.000314124158508
-4.21119068857e-05
-0.000308770716742
-4.58135046631e-05
-0.000303078916568
-4.94538247288e-05
-0.000297059218207
-5.30480093834e-05
-0.000290719687193
-5.66127524106e-05
-0.000284065423956
-6.01658597897e-05
-0.000277098095795
-6.37255160889e-05
-0.000269815663764
-6.73092332482e-05
-0.00026221237877
-7.09325207687e-05
-0.000254279169179
-7.46072621954e-05
-0.000246004492776
-7.83399607084e-05
-0.000237375573076
-8.21301270663e-05
-0.000228380293993
-8.59685217407e-05
-0.000219009230613
-8.98364488065e-05
-0.000209257857412
-9.37053004188e-05
-0.000199129861384
-9.75358380981e-05
-0.000188636746737
-0.000101284060124
-0.000177803842335
-0.000104894103736
-0.000166666533177
-0.000108314323964
-0.000155278415788
-0.000111483194214
-0.000143700702123
-0.000114359686679
-0.000132018196292
-0.000116887152532
-0.000120315788977
-0.000119060188158
-0.000108698276256
-0.000120851147148
-9.72775977375e-05
-0.000122282118642
-8.61638203692e-05
-0.000123410029251
-7.54651970593e-05
-0.000124302615586
-6.53005065548e-05
-0.000125054323092
-5.57648161288e-05
-0.000125842857205
-4.69280039365e-05
-0.000126856444426
-3.88419701815e-05
-0.000128305606695
-3.15156334058e-05
-0.000130465544507
-2.49158439846e-05
-0.000133623408196
-1.88715652069e-05
-0.000138083133515
-1.32300510842e-05
-0.000143795904696
-7.30644907576e-06
-0.000150428233764
-0.000151521108393
-2.95111883597e-05
0.000204173695111
-5.75057515233e-05
0.000224296819034
-8.30741720635e-05
0.000235119120656
-0.000106100603439
0.00024105093489
-0.000126733226847
0.00024228550788
-0.000145223530603
0.000239601789917
-0.000161861447542
0.000233744896009
-0.000176931030735
0.000225505411129
-0.00019068626858
0.000215588353507
-0.000203339481797
0.00020459067937
-0.00021505761845
0.000192986803486
-0.000225965324503
0.000181135005806
-0.000236151823278
0.000169293926907
-0.000245679198422
0.000157642723144
-0.000254590204876
0.000146300207332
-0.000262914594483
0.000135340733445
-0.000270673670731
0.000124806377039
-0.000277883258226
0.000114715904858
-0.000284555478623
0.000105071324672
-0.000290699745264
9.58627419086e-05
-0.000296323313801
8.70720572432e-05
-0.000301431622958
7.8675848917e-05
-0.000306028565467
7.06476443946e-05
-0.000310116758657
6.29597016158e-05
-0.000313697838163
5.55843764827e-05
-0.000316772773184
4.84951334857e-05
-0.000319342191023
4.1667247583e-05
-0.000321406693555
3.50782501565e-05
-0.000322967140785
2.87081908459e-05
-0.000324024891046
2.25397661004e-05
-0.00032458202344
1.65581602043e-05
-0.000324641510695
1.0750279766e-05
-0.000324207038595
5.10425242565e-06
-0.000323282530526
-3.86855950683e-07
-0.000321877157567
-5.7127694559e-06
-0.000320000374007
-1.08763035035e-05
-0.000317659988248
-1.58944255014e-05
-0.00031486689612
-2.07695491466e-05
-0.000311633778704
-2.55060570777e-05
-0.000307974713467
-3.01089007345e-05
-0.000303904888879
-3.45838099068e-05
-0.000299440340898
-3.89375623965e-05
-0.000294597650923
-4.31783214012e-05
-0.000289393566135
-4.731599185e-05
-0.000283844514384
-5.13625565985e-05
-0.000277965998499
-5.53323408064e-05
-0.000271771876171
-5.92421319142e-05
-0.000265273563942
-6.31110648533e-05
-0.000258479228654
-6.69601953033e-05
-0.000251393051967
-7.08116930129e-05
-0.000244014721393
-7.46875640729e-05
-0.000236339203001
-7.86080394214e-05
-0.000228356991791
-8.25894736767e-05
-0.000220055084908
-8.66418678701e-05
-0.000211418179846
-9.07670324141e-05
-0.000202431161244
-9.495554063e-05
-0.000193081704404
-9.91859059364e-05
-0.000183362143419
-0.000103424861693
-0.000173276335504
-0.0001076216463
-0.00016283396252
-0.000111726433397
-0.000152064833794
-0.00011566323275
-0.000141006099573
-0.000119373058479
-0.000129722538663
-0.000122766755424
-0.00011828076806
-0.000125801457589