/*--------------------------------*- C++ -*----------------------------------*\
| =========                 |                                                 |
| \\      /  F ield         | OpenFOAM: The Open Source CFD Toolbox           |
|  \\    /   O peration     | Version:  v1806                                 |
|   \\  /    A nd           | Web:      www.OpenFOAM.com                      |
|    \\/     M anipulation  |                                                 |
\*---------------------------------------------------------------------------*/
FoamFile
{
    version     2.0;
    format      ascii;
    class       surfaceScalarField;
    location    "900";
    object      phia;
}
// * * * * * * * * * * * * * * * * * * * * * * * * * * * * * * * * * * * * * //

dimensions      [0 3 -1 0 0 0 0];
oriented        oriented;


internalField   nonuniform List<scalar> 
12640
(
-0.00157897828374
0.00157903183163
-0.0029579183716
0.00137900012889
-0.00433172437506
0.00137387362689
-0.0061728059807
0.00184114692121
-0.00751491394326
0.00134218698781
-0.00907257286918
0.00155774424438
-0.0102076885258
0.00113517925097
-0.0110757071484
0.000868074870896
-0.0117692642074
0.000693609918995
-0.0123356515805
0.000566438090252
-0.0128030904043
0.00046748724054
-0.0131908429075
0.000387799912778
-0.0135133437939
0.000322547094649
-0.0137819270899
0.000268629673344
-0.0140056508634
0.000223770063152
-0.0141918147503
0.000186211267177
-0.0143463461883
0.000154579574414
-0.0144740799792
0.000127783644105
-0.0145789665647
0.000104937787927
-0.0146642288004
8.53155615366e-05
-0.0147324947197
6.83210048096e-05
-0.0147859059358
5.34686791673e-05
-0.0148262123682
4.03659331694e-05
-0.0148548477663
2.86974200628e-05
-0.0148729952186
1.82116901159e-05
-0.0148816384323
8.71003631064e-06
-0.0148816065097
3.7224210464e-08
-0.0148736103331
-7.92443193387e-06
-0.0148582728322
-1.52633638036e-05
-0.0148361721722
-2.20239567172e-05
-0.0148078837675
-2.82092707108e-05
-0.0147742597678
-3.35423462434e-05
-0.0147366840132
-3.7491577162e-05
-0.0146977904138
-3.88069115642e-05
-0.0146530886477
-4.46126674599e-05
-0.0145639764823
-8.90209980461e-05
-0.0144411801912
-0.000122703080311
-0.0142907159979
-0.000150369444297
-0.0141249734115
-0.000165646268615
-0.0139494363193
-0.000175439785094
-0.0137677837747
-0.00018155418371
-0.0135822858364
-0.000185399233019
-0.0133944532991
-0.000187733414496
-0.0132053787599
-0.00018897578677
-0.0130159352157
-0.000189345065833
-0.0128268961645
-0.000188941666443
-0.0126389966427
-0.000187803101112
-0.0124529696824
-0.00018593231388
-0.01226956985
-0.000183306788217
-0.012089596023
-0.000179883151505
-0.0119139074467
-0.000175600047574
-0.0117434387506
-0.000170383012105
-0.0115792057526
-0.000164149881626
-0.0114223060924
-0.000156819726934
-0.0112739052886
-0.00014832371953
-0.0111352116384
-0.000138619945115
-0.0110074315163
-0.000127709406556
-0.0108917101609
-0.000115654081063
-0.0107890527404
-0.000102593146085
-0.0107002342731
-8.87575768141e-05
-0.0106256974278
-7.44788498583e-05
-0.0105654501614
-6.01924941175e-05
-0.0105189645424
-4.64335402266e-05
-0.0104850890971
-3.38263443498e-05
-0.0104619726818
-2.30697420291e-05
-0.0104470098251
-1.49188673624e-05
-0.010436792016
-1.01759682159e-05
-0.01042708675
-9.66580586988e-06
-0.0104127746729
-1.42744702438e-05
-0.0103879223768
-2.48166220872e-05
-0.0103455379578
-4.2350201658e-05
-0.0102783772735
-6.71275523514e-05
-0.0101774332595
-0.000100912099524
-0.0100384445303
-0.00013895646421
-0.00984655126923
-0.000191863305647
-0.00961926934641
-0.000227250576636
-0.00924153447751
-0.000377705833636
-0.00877192386988
-0.000469586688059
-0.00612799762604
-0.00264384742983
-0.00612797075881
-0.00140305364234
0.00298218191048
-0.00350653803019
0.00348257900971
-0.00538070293583
0.003248110551
-0.00723305160665
0.00369354825923
-0.00919556809058
0.00330474203053
-0.010489385453
0.00285159013106
-0.0118352435879
0.00248106527919
-0.013154044955
0.00218690261542
-0.0144129550217
0.00195254749354
-0.0156008870349
0.00175439666131
-0.0167119142326
0.00157854131066
-0.0177434798084
0.00141939147324
-0.0186959622936
0.00127505569228
-0.0195719138476
0.00114460700448
-0.0203752037808
0.00102708615013
-0.0211103364637
0.000921370421935
-0.0217820040677
0.000826274351937
-0.0223948216538
0.000740629294367
-0.0229531759503
0.000663321136405
-0.0234611438144
0.000593313831014
-0.0239224574435
0.000529666255047
-0.0243404970418
0.00047154161625
-0.0247183028177
0.000418206436199
-0.0250585935258
0.000369024853338
-0.0253637920385
0.000323448439616
-0.0256360486025
0.000281007047715
-0.0258772683528
0.000241299021927
-0.0260891316574
0.000203983294966
-0.0262731272948
0.000168778362789
-0.0264305539499
0.000135451264079
-0.0265625640692
0.000103851109417
-0.0266698767518
7.3823134669e-05
-0.0267530394033
4.57256374286e-05
-0.026813594435
2.18051116522e-05
-0.0268765418575
1.83933287447e-05
-0.0269831971777
1.76949234371e-05
-0.0270737620002
-3.20766420951e-05
-0.0271311229472
-9.29454343617e-05
-0.0271501343971
-0.000146571076968
-0.02712721826
-0.000198291226915
-0.0270597058309
-0.000249001625635
-0.0269462220001
-0.000298817694373
-0.0267856184367
-0.000348271765775
-0.0265766586649
-0.000397870563991
-0.0263180212035
-0.00044791815059
-0.0260083432892
-0.000498555994386
-0.0256462574247
-0.00054982643067
-0.0252304273939
-0.00060170110169
-0.0247595910084
-0.000654083359178
-0.0242326136219
-0.000706802414488
-0.0236485530042
-0.000759604269753
-0.0230067393427
-0.000812142247107
-0.0223068710234
-0.000863965713072
-0.0215491293975
-0.000914510987907
-0.0207343099903
-0.000963094820066
-0.0198639681261
-0.00100891566557
-0.0189405698668
-0.00105106361496
-0.0179676381773
-0.00108854382945
-0.0169498779434
-0.00112031349159
-0.0158932630377
-0.00114533457989
-0.0148050665619
-0.00116263937054
-0.0136938186397
-0.0011714062708
-0.0125691809231
-0.00117103889458
-0.0114417348534
-0.00116124164738
-0.0103226912092
-0.00114208419886
-0.00922353657478
-0.00111404568404
-0.00815564179572
-0.0010780443087
-0.0071298574724
-0.001035424837
-0.00615612876845
-0.000987979045531
-0.00524312030783
-0.000937801791064
-0.00439790150141
-0.000887546425679
-0.00362563231006
-0.000839374638646
-0.00292928073358
-0.000797241488763
-0.00230938515957
-0.000758830569835
-0.00176265617024
-0.000738569751329
-0.00128509713268
-0.000704790240516
-0.000847069878608
-0.000815712023681
-0.000450797187558
-0.000865833015962
0.000300929423484
-0.00339555750018
-0.00582701489768
-0.00498637911636
0.00796860159086
-0.0061157051898
0.00461196772579
-0.00634981541821
0.00348225779511
-0.00634868141767
0.00369244206783
-0.00658076212161
0.00353684419231
-0.00705104703349
0.00332189282631
-0.0077262508691
0.00315628411617
-0.0085070358871
0.00296770186709
-0.00930073050218
0.00274625566741
-0.01005625926
0.00250993873434
-0.0107507521186
0.00227304680484
-0.011375482183
0.00204413358664
-0.0119290557212
0.00182864054071
-0.0124140845193
0.00162964645791
-0.0128351903091
0.00144820204632
-0.0131977687177
0.00128395841855
-0.0135072862513
0.00113580121103
-0.0137689194918
0.00100227154633
-0.0139873890822
0.000881799769327
-0.0141669005456
0.000772834234267
-0.0143111411958
0.000673916145447
-0.0144233082548
0.000583718009705
-0.0145061507657
0.000501058817206
-0.0145620185367
0.000424902762207
-0.0145929107542
0.000354351530934
-0.0146005237906
0.000288631375171
-0.0145862950229
0.000227082452286
-0.0145514420731
0.00016914308838
-0.0144970021511
0.000114352223747
-0.0144238538459
6.23173685542e-05
-0.0143328059272
1.28187028141e-05
-0.0142245373096
-3.44292940992e-05
-0.014099485788
-7.93085798287e-05
-0.01395206687
-0.00012559581668
-0.0137502691748
-0.000183385622172
-0.0135355365135
-0.000197018788733
-0.0133419950912
-0.000225598746604
-0.0131717085772
-0.000263212648978
-0.0130221224411
-0.000296137788607
-0.0128944072175
-0.000325987183947
-0.0127887626693
-0.000354627044112
-0.0127051302536
-0.000382431289731
-0.0126437304516
-0.000409653138202
-0.0126048551845
-0.000436727836063
-0.0125886141544
-0.000464141785357
-0.0125947821792
-0.000492371089966
-0.0126226982715
-0.000521894202969
-0.0126711775771
-0.000553206208642
-0.0127384288986
-0.000586817268594
-0.0128219769365
-0.000623240142417
-0.0129185932978
-0.000662974501554
-0.0130242365271
-0.000706486098747
-0.0131340079795
-0.000754182125681
-0.0132421277676
-0.000806379485703
-0.0133419425755
-0.000863269004829
-0.0134259735594
-0.000924874022351
-0.0134860185799
-0.000991008548073
-0.013513316426
-0.00106123621549
-0.0134987824119
-0.00113483825265
-0.0134333132234
-0.00121079472806
-0.0133081550072
-0.00128778896048
-0.0131153136524
-0.00136423913737
-0.0128479804266
-0.00143836393133
-0.0125009343012
-0.00150827961997
-0.0120708826856
-0.00157212782575
-0.0115567017634
-0.00162821853271
-0.0109595498356
-0.0016751881831
-0.0102828433623
-0.00171212304731
-0.00953207850297
-0.00173873548748
-0.00871454764162
-0.00175532378004
-0.0078388522093
-0.00176323252743
-0.0069143663136
-0.00176385028884
-0.00594981602705
-0.00176178111295
-0.00495278218153
-0.00175585211917
-0.00392552625923
-0.00176581431732
-0.00287576176913
-0.0017545415796
-0.00180429112564
-0.00188717205006
-0.000832203661732
-0.00183791603606
4.78651328363e-05
-0.00427559656057
-0.00577915257659
-0.0064236142941
0.0143923217217
-0.00467565698545
0.00286405373959
-0.00408473448334
0.00289135994735
-0.00436924020917
0.00397696653142
-0.00513257238991
0.00430019098341
-0.0061410037805
0.00433033495185
-0.00720939674355
0.00422468545117
-0.00823901037411
0.00399732231178
-0.00918773332045
0.00369498450093
-0.0100449159355
0.00336712627603
-0.010814471002
0.00304260578216
-0.0115055792036
0.00273524455616
-0.0121284321606
0.0024514949647
-0.0126925118779
0.002193726387
-0.0132060098651
0.00196169883093
-0.013675735696
0.00175368182872
-0.0141072286085
0.00156729031101
-0.0145049430048
0.00139998103479
-0.0148724488191
0.00124929938118
-0.0152126143627
0.00111299264202
-0.015527762118
0.000989055603793
-0.0158197939678
0.000875740803696
-0.0160902920091
0.000771546789077
-0.0163405967995
0.000675196896904
-0.0165718695811
0.000585612791023
-0.01678514006
0.00050188990957
-0.0169813419115
0.000423271634364
-0.0171613443184
0.000349132544537
-0.0173259527667
0.000278947107729
-0.0174759507996
0.000212301632326
-0.0176119218176
0.000148775387807
-0.0177345312765
8.8165676309e-05
-0.0178437746315
2.99197870407e-05
-0.01794566339
-2.37224378286e-05
-0.0180499760345
-7.90890625291e-05
-0.0180969200699
-0.00015009138939
-0.0181034425474
-0.000219093677719
-0.0180731848782
-0.000293488332092
-0.0180017686241
-0.000367572750325
-0.0178890284305
-0.00043874669851
-0.0177361569469
-0.000507518422431
-0.0175442512491
-0.000574357454942
-0.0173145821533
-0.000639343098799
-0.0170488111439
-0.00070252017446
-0.016748997127
-0.000763977295531
-0.0164175894275
-0.000823800572732
-0.0160574489174
-0.000882056387244
-0.0156718716451
-0.000938805222109
-0.0152645929149
-0.000994117342321
-0.0148397690517
-0.00104808517013
-0.0144019312037
-0.00110083284204
-0.0139559098927
-0.00115252748408
-0.0135067216239
-0.00120338956415
-0.0130594158281
-0.00125370382819
-0.0126188758227
-0.00130382648194
-0.0121895778698
-0.00135418867209
-0.0117753116429
-0.00140529029772
-0.0113788795269
-0.00145768298674
-0.0110017942989
-0.00151193692782
-0.0106440086394
-0.00156859292545
-0.0103037092582
-0.00162809967789
-0.00997721429342
-0.00169074450803
-0.00965900175648
-0.00175658567912
-0.00934188963657
-0.00182539998339
-0.00901736645593
-0.00189665803005
-0.00867605857661
-0.00196953240426
-0.00830829767917
-0.00204295380376
-0.00790475588166
-0.00211566845245
-0.00745709485035
-0.00218639876661
-0.00695863032851
-0.00225378926844
-0.00640489742634
-0.00231696478097
-0.00579429073835
-0.00237445496453
-0.00512784820484
-0.00242821975037
-0.00441003745366
-0.00247365847719
-0.00364442625059
-0.00253141900787
-0.00284325013357
-0.00255571286118
-0.00200323919573
-0.00272717732957
-0.00121056207078
-0.00263058101529
-0.000323637377569
-0.00516252975544
-0.00610278386068
-0.00149996311597
0.015892290608
-0.00101517947368
0.00237928642965
-0.00230254456407
0.00417874092299
-0.00378187606226
0.00545631147788
-0.00514552700043
0.00566385259479
-0.00637626287557
0.0055610790306
-0.00743718489713
0.00528561361515
-0.00833150407461
0.0048916462175
-0.00908875537017
0.00445223937567
-0.00973874643556
0.00401711993009
-0.0103050368286
0.0036088977157
-0.0108055441038
0.00323575220912
-0.0112534170604
0.00289936706693
-0.0116578729778
0.00259818004535
-0.0120251769816
0.00232899919566
-0.0123595375137
0.0020880371645
-0.0126637785875
0.00187152475081
-0.0129398086098
0.00167600280777
-0.0131889423905
0.00149842349047
-0.0134121200221
0.00133615899708
-0.0136100496184
0.00118697256384
-0.0137832976317
0.00104897462937
-0.0139323427209
0.000920576419805
-0.0140576076416
0.000800444885608
-0.0141594760657
0.000687463113002
-0.0142383011321
0.000580695488973
-0.0142944084474
0.00047935838981
-0.0143280931084
0.000382795339465
-0.0143396201388
0.00029045125565
-0.0143292019118
0.000201859248825
-0.0142970313009
0.000116579620768
-0.014243112362
3.4220342202e-05
-0.0141671375141
-4.60824725359e-05
-0.0140654085996
-0.000125480043107
-0.0139511588732
-0.000193368727959
-0.0138446925331
-0.000256588814778
-0.013744624501
-0.000319193795135
-0.0136563351441
-0.000381810758004
-0.013579165382
-0.000444776442181
-0.0135109502321
-0.000506996509755
-0.0134500006805
-0.000568503288493
-0.0133945203921
-0.000629873476888
-0.01334233764
-0.000691561962064
-0.0132909767371
-0.000753917243591
-0.0132377072699
-0.000817282977195
-0.0131795541535
-0.000881989566978
-0.0131133294651
-0.000948316645058
-0.0130356976958
-0.0010164718349
-0.0129432687439
-0.00108658047505
-0.0128327123654
-0.00115867464628
-0.0127008942276
-0.00123268309367
-0.0125450282091
-0.00130842423539
-0.0123628399729
-0.00138560728726
-0.0121527291012
-0.00146384258756
-0.0119139168315
-0.00154266520824
-0.0116465584616
-0.00162157177238
-0.0113518002755
-0.00170007168256
-0.0110317566424
-0.00177774805666
-0.0106893898765
-0.0018543235791
-0.0103282807649
-0.0019297202006
-0.00995229397057
-0.00200410312161
-0.00956515692952
-0.002077896556
-0.00916999096106
-0.00215176519286
-0.00876884533467
-0.00222655758335
-0.00836229525552
-0.0023032186565
-0.00794916206822
-0.00238267461702
-0.00752640145867
-0.00246572203944
-0.00708920518841
-0.00255287087167
-0.00663132366124
-0.00264428504989
-0.00614566188203
-0.00273945426503
-0.00562512043337
-0.00283750799446
-0.00506399481369
-0.0029355806945
-0.00445920321261
-0.00303301045853
-0.00381324107571
-0.00311961804152
-0.0031321879458
-0.00321247005295
-0.00243525649063
-0.00325264043577
-0.00172167799173
-0.00344075338572
-0.0010659636494
-0.00328630099534
-0.000254330094638
-0.00597415367006
-0.0063571209756
5.57138920281e-05
0.0158366266952
-0.000459165445119
0.00289418447419
-0.00261706913968
0.00633665651619
-0.00437643258813
0.00721568468285
-0.00573233254588
0.00701976062176
-0.00680699844711
0.00663575137279
-0.0076488999332
0.00612752021223
-0.00831825468217
0.00556100497451
-0.00887364819785
0.00500763603422
-0.0093557666075
0.00449924065274
-0.00978988406146
0.0040430166354
-0.010191514706
0.00363738338948
-0.0105698187183
0.00327767054386
-0.0109297066245
0.00295806627265
-0.0112734195056
0.00267270908044
-0.0116016648489
0.00241627818306
-0.0119143437404
0.00218419781661
-0.0122109849139
0.00197263671051
-0.0124909976764
0.00177842737255
-0.0127538135896
0.00159896453072
-0.0129989597288
0.00143210666492
-0.0132260895804
0.00127609093529
-0.0134349911937
0.00112946282183
-0.0136255831803
0.000991020173885
-0.0137979069273
0.000859768515429
-0.0139521170691
0.000734885832729
-0.0140884743385
0.000615694242419
-0.0142073368714
0.000501635021207
-0.01430916075
0.000392250670371
-0.0143944809632
0.000287153548484
-0.0144639671845
0.000186038320655
-0.0145183609301
8.85851748288e-05
-0.0145592682924
-5.20561861718e-06
-0.0145890213611
-9.57590457134e-05
-0.0145923754123
-0.000190048206612
-0.0145656284531
-0.000283370464108
-0.0145094553102
-0.000375402706395
-0.0144246083901
-0.000466694386648
-0.0143127787706
-0.00055664353202
-0.0141754730488
-0.000644340346927
-0.0140146602524
-0.000729354590893
-0.0138327967223
-0.000811775806551
-0.0136325588796
-0.000891838585713
-0.0134167152176
-0.000969799592315
-0.013188054152
-0.00104598229047
-0.0129492837193
-0.00112079775802
-0.0127029131351
-0.00119472414552
-0.0124511397089
-0.00126828131391
-0.0121957469027
-0.00134200813056
-0.0119380184243
-0.00141643678106
-0.0116786737054
-0.0014920599658
-0.0114178346913
-0.00156929394374
-0.0111550308797
-0.00164844006799
-0.0108892507588
-0.00172965003017
-0.0106190424117
-0.00181289901775
-0.0103426640273
-0.00189797386987
-0.0100582756871
-0.00198448183564
-0.00976415755086
-0.00207188624433
-0.00945892725294
-0.00215957207819
-0.00914172379579
-0.00224694016382
-0.00881231874546
-0.00233352294266
-0.00847112079053
-0.00241910769762
-0.00811904936293
-0.00250384820579
-0.00775727310533
-0.0025883439578
-0.00738683316998
-0.00267366722853
-0.00700819835048
-0.00276131670485
-0.00662080542236
-0.00285312090306
-0.0062226916861
-0.00295098925982
-0.00581025947082
-0.00305672075088
-0.00537830268364
-0.00317141329308
-0.00492034800255
-0.00329546377331
-0.00442969932263
-0.00342622940119
-0.00390060252075
-0.00356210630631
-0.00333165569556
-0.00368856391958
-0.00272503273714
-0.00381909115677
-0.00209855118969
-0.00387912140309
-0.00145354563882
-0.00408575817712
-0.000884448207874
-0.00385539361302
-0.000154474561257
-0.00670413986195
-0.00651159664971
0.000371197786857
0.0154654096124
-0.000989889884763
0.00425527213166
-0.00343605775051
0.00878282947444
-0.00501359393698
0.00879322681967
-0.00610167522032
0.00810784772361
-0.00689387944804
0.00742796091698
-0.00747787410386
0.00671151949548
-0.00793722639525
0.0060203612732
-0.00833207439626
0.00540248741113
-0.0086961241146
0.00486329318343
-0.00904655318562
0.00439344790011
-0.00939134697373
0.00398217870814
-0.00973314073269
0.00361946506953
-0.0100714983239
0.00329642374961
-0.0104044127184
0.00300562238932
-0.0107292427905
0.00274110606157
-0.0110432442684
0.00249819594712
-0.0113438451269
0.00227323293739
-0.0116287726438
0.0020633489764
-0.0118960970907
0.001866281664
-0.0121442289877
0.00168022989061
-0.012371893032
0.00150374484038
-0.0125780919726
0.00133565022825
-0.0127620691442
0.00117498431217
-0.0129232731196
0.00102095805064
-0.0130613270716
0.000872923836273
-0.0131760020458
0.000730351853099
-0.0132671964628
0.00059281055287
-0.0133349155799
0.000459949457004
-0.0133792694684
0.000331485564877
-0.0134004326633
0.000207178212185
-0.0133987114619
8.68391601524e-05
-0.013374185054
-2.97582444436e-05
-0.0133276031925
-0.000142368620116
-0.0132689810915
-0.000248699245307
-0.0132009496828
-0.000351431772295
-0.0131247595445
-0.00045162358414
-0.0130415732697
-0.000549912065017
-0.012951523692
-0.000646725055397
-0.0128538755903
-0.000742020713092
-0.0127474989788
-0.000835763670766
-0.0126311788227
-0.000928128379935
-0.0125036781453
-0.00101937152467
-0.0123637878477
-0.00110972172977
-0.0122104191374
-0.00119938232936
-0.0120426890573
-0.00128855839734
-0.0118599794022
-0.00137746351973
-0.0116619725918
-0.0014663167668
-0.0114486667319
-0.00155534150634
-0.0112203660536
-0.00164476364321
-0.0109776455706
-0.00173480527442
-0.0107212910741
-0.00182567174165
-0.0104522199883
-0.001917532931
-0.010171390451
-0.00201049970091
-0.009879710219
-0.0021045977683
-0.00957795863701
-0.00219974228777
-0.0092667370501
-0.00229571863637
-0.00894646131301
-0.00239217556026
-0.00861740331647
-0.0024886421069
-0.00827977977197
-0.00258457422203
-0.0079338713436
-0.00267944047038
-0.00758014236421
-0.0027728444074
-0.00721932143521
-0.00286467559392
-0.0068523982666
-0.00295527235869
-0.00648050479851
-0.00304556476286
-0.00610467406669
-0.00313715045515
-0.00572546676953
-0.0032323301372
-0.0053425791034
-0.00333387810759
-0.00495443801529
-0.00344486204062
-0.00455795345302
-0.00356789748129
-0.0041484595004
-0.00370495650998
-0.0037203145865
-0.00385437275062
-0.00326756783603
-0.00401485126076
-0.00278679721435
-0.0041693328412
-0.00227628985995
-0.00432959782512
-0.00174930612846
-0.00440610416902
-0.0012039031036
-0.00463116075616
-0.000748748574414
-0.00431055517946
-0.000109232661295
-0.00734365601854
-0.00662083519843
0.000364139775408
0.0151012844926
-0.00158778942491
0.00620720500843
-0.00399120123906
0.011186243663
-0.00523624394546
0.0100382728573
-0.00603815306442
0.00890976080691
-0.00659307901443
0.00798289106299
-0.0069996626677
0.00711810734486
-0.00734074001939
0.00636144257794
-0.00766290308743
0.00572465416279
-0.00798681146608
0.00518720487977
-0.00832024245534
0.0047268818484
-0.00866439254711
0.00432633130945
-0.0090169203975
0.00397199492845
-0.00937380781294
0.00365331256099
-0.00973050007798
0.00336231534365
-0.0100825343915
0.00309314025876
-0.0104258509896
0.00284151152304
-0.010756922869
0.00260430282431
-0.0110727844803
0.00237920753505
-0.0113710065752
0.00216449961767
-0.0116496457282
0.001958863736
-0.0119071850594
0.00176127769836
-0.0121424758386
0.00157093330248
-0.0123546845874
0.00138718414551
-0.0125432481793
0.00120951146082
-0.0127078367511
0.00103750099003
-0.0128483252844
0.000870827680289
-0.0129647703261
0.000709241622127
-0.0130573987039
0.000552562550618
-0.0131265894158
0.000400659709177
-0.0131729004526
0.000253471399959
-0.0131970088848
0.000110928560653
-0.0131998554284
-2.69320009005e-05
-0.0131815768652
-0.000160668669982
-0.0131387796079
-0.000291518829953
-0.0130719295356
-0.000418304842138
-0.0129819749909
-0.000541601630695
-0.0128703741541
-0.000661536801463
-0.0127389928079
-0.000778130507997
-0.0125897031461
-0.000891334582903
-0.0124243445561
-0.00100114636837
-0.012244756671
-0.00110774017083
-0.0120527026184
-0.00121144908269
-0.0118497549286
-0.00131269243152
-0.0116372173855
-0.00141194220895
-0.0114160831942
-0.00150971416804
-0.0111870166287
-0.00160655075011
-0.0109503593332
-0.00170299374304
-0.0107061638233
-0.00179955558391
-0.0104542515175
-0.00189669334772
-0.0101942878202
-0.00199478510599
-0.00992586528053
-0.00209410911262
-0.00964858456827
-0.00219482711447
-0.00936212293197
-0.00229697343294
-0.00906628139192
-0.00240045001336
-0.00876100551096
-0.00250502749857
-0.0084463800204
-0.00261035211037
-0.00812260758672
-0.00271595468181
-0.00778998177555
-0.00282127337119
-0.00744887489133
-0.00292568540192
-0.00709975064063
-0.00302856792973
-0.00674320744056
-0.00312938978652
-0.00638004220624
-0.00322784209186
-0.00601129996789
-0.00332401489382
-0.00563826987103
-0.00341859441163
-0.00526240786419
-0.00351301111276
-0.00488508308781
-0.00360965300342
-0.00450731767428
-0.00371164093409
-0.00412937510652
-0.00382280172634
-0.00375052283198
-0.00394674647983
-0.00336878016568
-0.00408669573572
-0.00298133063679
-0.00424181873751
-0.00258504727545
-0.00441113162368
-0.00217848036953
-0.00457589771992
-0.00176043411357
-0.00474764329608
-0.00134273173397
-0.00482380666367
-0.000918665846733
-0.0050552279959
-0.000601027218114
-0.00462819318117
-6.71436599352e-05
-0.00787754978064
-0.00668798406889
0.000272738238841
0.0148285223419
-0.00214635711137
0.00862629178421
-0.00427931403867
0.0133191984594
-0.0051430763892
0.0109020357444
-0.00570633814616
0.00947302480491
-0.00609744821323
0.00837400436315
-0.00640558857688
0.00742625134507
-0.00669758491321
0.0066534426586
-0.00700168456819
0.00602875740893
-0.00732658271158
0.00551210642014
-0.00767288419914
0.00507318644329
-0.00803713915581
0.00469058908105
-0.0084139007694
0.00434875897215
-0.00879708916445
0.00403650295286
-0.00918077519515
0.0037460028313
-0.00955955961617
0.00347192552447
-0.00992872662805
0.00321067867578
-0.0102842763234
0.00295985188804
-0.010622891495
0.00271782123915
-0.0109418719659
0.00248347772934
-0.0112390573562
0.00225604583817
-0.0115127504162
0.00203496649924
-0.0117616470972
0.00181982473668
-0.0119847760931
0.00161030687903
-0.0121814483872
0.00140617647358
-0.0123512163088
0.00120726059499
-0.0124938412176
0.00101344323315
-0.0126092679667
0.000824657966518
-0.0126976074627
0.000640890586861
-0.0127591187852
0.000462158542501
-0.0127942084442
0.000288547581314
-0.0128033915667
0.000120097257085
-0.0127874502073
-4.28887047217e-05
-0.0127479149565
-0.000200220098248
-0.0126875230788
-0.000351927384148
-0.0126070007748
-0.000498844150939
-0.0125074355654
-0.000641184089061
-0.0123897039664
-0.000779285731207
-0.0122545169094
-0.00091333489461
-0.0121024672612
-0.00104340139842
-0.0119340984966
-0.00116953205711
-0.011750013448
-0.00129184174851
-0.0115509353456
-0.00141054324253
-0.0113377110916
-0.00152593213683
-0.0111112908208
-0.00163837725473
-0.0108726948142
-0.00174832416122
-0.0106229649617
-0.00185629373643
-0.0103631043159
-0.00196286658253
-0.0100940155658
-0.00206865552955
-0.00981644946951
-0.00217426958222
-0.00953097212141
-0.00228027148773
-0.00923795707355
-0.00238713206285
-0.00893760474578
-0.00249518618451
-0.00862998582872
-0.00260459794043
-0.00831510120106
-0.00271533907983
-0.00799294657668
-0.00282718545183
-0.0076635664482
-0.0029397344975
-0.00732709620198
-0.00305242618303
-0.00698377546968
-0.00316459441896
-0.00663395057772
-0.0032755097444
-0.00627806724471
-0.00338444986347
-0.00591667546121
-0.00349077948671
-0.00555046218757
-0.00359405244193
-0.00518029999145
-0.00369417359895
-0.00480728248218
-0.00379160760113
-0.00443277572462
-0.00388751300263
-0.00405823308793
-0.00398419025515
-0.00368515781889
-0.00408471055474
-0.003314753652
-0.00419320021644
-0.00294801862789
-0.00431347561048
-0.00258520529085
-0.0044495035173
-0.00222654788249
-0.00460047112791
-0.00187314518169
-0.00476453039587
-0.00152819538514
-0.00492084564287
-0.00119418254995
-0.00508165569424
-0.00088261689358
-0.00513537391011
-0.000590011624
-0.00534783387138
-0.000411313235727
-0.00480689815261
1.1084928507e-05
-0.00829995591917
-0.00667690343985
0.000141548372732
0.014686975041
-0.00257342851639
0.0113412647253
-0.00429114246771
0.0150369088088
-0.00481909298098
0.0114299851407
-0.00522897548641
0.00988290814967
-0.00553123588004
0.00867626696624
-0.00580281595439
0.00769783444412
-0.00609037844613
0.00694100844786
-0.00640676567369
0.00634514797184
-0.0067528908602
0.00585823477048
-0.0071250688948
0.00544536745553
-0.00751717685471
0.00508269974569
-0.00792211979159
0.00475370434098
-0.00833283683485
0.00444722206044
-0.00874282693767
0.00415599459696
-0.00914636647548
0.00387546622213
-0.0095385654714
0.00360287828533
-0.00991534013547
0.00333662653427
-0.010273342429
0.00307582284884
-0.0106098718835
0.00282000577108
-0.0109227853184
0.00256895711028
-0.0112104132853
0.00232259150973
-0.0114714869859
0.00208089468147
-0.0117050769451
0.00184389225505
-0.0119105427735
0.00161163690142
-0.0120874931563
0.00138420473933
-0.0122357543597
0.00116169738156
-0.0123553459898
0.000944241703193
-0.0124464638061
0.000731999712402
-0.012509465404
0.000525150650204
-0.0125448738978
0.000323945884551
-0.0125533679054
0.000128580402852
-0.012535817633
-6.04504769517e-05
-0.0124922387774
-0.000243810961071
-0.0124229021876
-0.000421276148024
-0.012328821269
-0.000592937348339
-0.0122111678619
-0.000758849742406
-0.0120713985446
-0.000919067198539
-0.0119110836123
-0.00107366175356
-0.0117317935482
-0.00122270310402
-0.0115350420187
-0.00136629482892
-0.0113222713953
-0.00150462315413
-0.0110948467515
-0.00163797811083
-0.0108540429366
-0.00176674555972
-0.010601034797
-0.00189139430735
-0.0103368967868
-0.00201247033194
-0.0100626063819
-0.00213059149193
-0.00977904474251
-0.00224643470635
-0.00948699238899
-0.0023607134677
-0.00918712091848
-0.00247414568806
-0.00887998371265
-0.00258741237453
-0.0085660100509
-0.0027011084171
-0.00824550944544
-0.00281568851796
-0.00791868827028
-0.00293141987255
-0.00758568220197
-0.00304834498111
-0.00724660218014
-0.00316626441658
-0.00690157647528
-0.00328475831926
-0.00655080868722
-0.00340319130163
-0.00619460150654
-0.00352079825326
-0.00583337952124
-0.00363672763894
-0.00546767963424
-0.00375014510255
-0.00509813930809
-0.00386031443974
-0.00472550205755
-0.00396668371936
-0.00435063819656
-0.00406903085471
-0.00397455103021
-0.0041676874513
-0.00359857152482
-0.00426348464366
-0.00322410311589
-0.00435865041745
-0.00285278080198
-0.00445602485971
-0.00248614987174
-0.00455982336917
-0.00212685041802
-0.0046727680528
-0.00177669074361
-0.00479965678811
-0.00143914185133
-0.00493801470228
-0.00112113162639
-0.00508253728521
-0.000831005597114
-0.00521096975508
-0.000579515706415
-0.00533314717449
-0.000366911294791
-0.00534797932075
-0.000241668382706
-0.00547308053963
-0.000164445605764
-0.00488412484111
0.00019929159109
-0.00866370009672
-0.00647762051868
7.21402174373e-06
0.0146797388008
-0.00285449060143
0.0142029574883
-0.00409754706843
0.016279959275
-0.00438491971453
0.011717354831
-0.00471952150439
0.010217509541
-0.00498277661314
0.00893952342481
-0.00525131302306
0.00796637316796
-0.00555331145744
0.00724300963623
-0.00589166183142
0.00668350110859
-0.00626313966541
0.00622971525293
-0.00666158555114
0.0058438157486
-0.00707930488137
0.00550042126693
-0.00750831607198
0.00518271743251
-0.00794111131622
0.00488001892102
-0.00837100214377
0.00458588666248
-0.00879222808424
0.00429669300199
-0.00919994562789
0.00401059617647
-0.00959015727555
0.00372683801761
-0.00995961475145
0.0034452795724
-0.0103057158773
0.00316610554759
-0.0106264071854
0.00288964641421
-0.0109200975655
0.00261627923552
-0.0111855850504
0.00234637882026
-0.0114219963495
0.00208029953689
-0.011628737803
0.00181837363797
-0.0118054564617
0.0015609180171
-0.0119520088096
0.00130824366071
-0.0120684371659
0.00106066335116
-0.012154950092
0.000818505276048
-0.0122119068841
0.000582099518558
-0.0122398061184
0.000351836646954
-0.0122392464564
0.000128011836626
-0.0122109780617
-8.87282009816e-05
-0.0121560850665