/*--------------------------------*- C++ -*----------------------------------*\
| =========                 |                                                 |
| \\      /  F ield         | OpenFOAM: The Open Source CFD Toolbox           |
|  \\    /   O peration     | Version:  v1806                                 |
|   \\  /    A nd           | Web:      www.OpenFOAM.com                      |
|    \\/     M anipulation  |                                                 |
\*---------------------------------------------------------------------------*/
FoamFile
{
    version     2.0;
    format      ascii;
    class       surfaceScalarField;
    location    "900";
    object      phia;
}
// * * * * * * * * * * * * * * * * * * * * * * * * * * * * * * * * * * * * * //

dimensions      [0 3 -1 0 0 0 0];
oriented        oriented;


internalField   nonuniform List<scalar> 
12640
(
-0.00349487776121
0.00349497932011
-0.00747034343217
0.0039756051456
-0.0116517222932
0.0041815228159
-0.0142039037354
0.00255230760779
-0.0153037045005
0.00109996311405
-0.0170594493855
0.00175589948349
-0.0183821880157
0.00132285945111
-0.0194896569034
0.00110757336948
-0.0204159255106
0.000926365628451
-0.0211846449401
0.000768811832402
-0.0218261727068
0.000641615460483
-0.0223645926313
0.0005385054216
-0.0228170225149
0.000452512945848
-0.0231966112463
0.000379671910767
-0.0235143008028
0.000317772468477
-0.023779365686
0.00026514966868
-0.0239996023591
0.000220322787304
-0.0241815014027
0.000181988200746
-0.0243304419011
0.000149032084246
-0.0244508625113
0.000120515988865
-0.0245464172627
9.5653310071e-05
-0.0246201054383
7.37909940132e-05
-0.0246743919521
5.439302061e-05
-0.0247113057296
3.70248138113e-05
-0.0247325289074
2.13382327967e-05
-0.0247394670433
7.0578476404e-06
-0.0247333123245
-6.03078719891e-06
-0.024715094816
-1.80888857124e-05
-0.0246857265394
-2.92353093736e-05
-0.024646064129
-3.95247866184e-05
-0.024596974704
-4.89473829734e-05
-0.024539753002
-5.70750586102e-05
-0.0244765563467
-6.30454234321e-05
-0.0244115370016
-6.48634639646e-05
-0.0243385992511
-7.27773938616e-05
-0.0241993145154
-0.000139120393477
-0.0240018937575
-0.000197252458629
-0.0237569316649
-0.000244790580986
-0.0234859550041
-0.000270801878356
-0.0231981223759
-0.000287655448399
-0.0228997650205
-0.000298177653089
-0.0225948078902
-0.000304776031515
-0.0222858456157
-0.000308779650488
-0.0219747324692
-0.000310930297401
-0.0216629304265
-0.000311618812281
-0.0213517181241
-0.000311030093083
-0.0210422949163
-0.00030924181797
-0.0207358411197
-0.000306274664907
-0.0204335556871
-0.000302108298012
-0.020136693048
-0.00029668891648
-0.0198465888025
-0.000289933602086
-0.0195646851879
-0.000281737391526
-0.0192925420536
-0.000271980916483
-0.0190318419064
-0.000260543164227
-0.0187843722248
-0.000247317429027
-0.0185519924703
-0.000232233326237
-0.018336569962
-0.00021528130762
-0.0181398944174
-0.00019654052078
-0.0179635599486
-0.00017620493044
-0.0178088293226
-0.000154607378304
-0.0176764757344
-0.000132235842052
-0.0175666221055
-0.00010974205109
-0.017478577355
-8.79384561027e-05
-0.0174106910134
-6.77858738493e-05
-0.0173602213218
-5.03741025329e-05
-0.0173232348693
-3.68961925823e-05
-0.017294511664
-2.86373294895e-05
-0.0172674955036
-2.69350447078e-05
-0.0172341650888
-3.32531021888e-05
-0.0171851184935
-4.89731447828e-05
-0.0171090839497
-7.59640732392e-05
-0.016994127562
-0.000114888083228
-0.0168247412175
-0.000169320504301
-0.0165923192551
-0.000232355474927
-0.016268355204
-0.000323902210556
-0.0158757776937
-0.000392512875251
-0.0152044833123
-0.000671234668378
-0.0143166516794
-0.000887780698044
-0.00972034167672
-0.00459615375901
-0.00972028807397
-0.00152363480335
0.00501881805797
-0.00487654569022
0.00732873536374
-0.00726269106969
0.00656785159212
-0.0105271691361
0.00581688313407
-0.0142228617508
0.00479572528855
-0.0166173165354
0.00415040659729
-0.0189348942259
0.00364048829228
-0.0211076781217
0.00328040566691
-0.0231626510449
0.00298138877055
-0.0251028064393
0.0027090156008
-0.0269183904983
0.00245724822285
-0.028604760358
0.00222492228316
-0.0301630182785
0.00201081792085
-0.0315976024541
0.00181430250122
-0.0329147517655
0.00163496877177
-0.0341216117854
0.00147205726822
-0.0352256239987
0.00132438379855
-0.0362341183247
0.00119053296827
-0.0371540701942
0.00106903616438
-0.037991971494
0.000958471983268
-0.0387537765684
0.000857515280873
-0.0394448891686
0.000764963628771
-0.0400701795483
0.000679745963864
-0.0406340114506
0.000600922919888
-0.0411402814191
0.000527677171251
-0.0415924542503
0.000459303667633
-0.0419936061551
0.000395197039726
-0.0423464562161
0.000334841404617
-0.0426534186155
0.000277810377523
-0.0429166053561
0.000223749745033
-0.0431378975311
0.000172435709392
-0.043318504594
0.000123627571034
-0.0434593445579
7.78933995828e-05
-0.0435625679577
3.84633475752e-05
-0.0436655462492
3.03073608403e-05
-0.0438389265667
3.43703575276e-05
-0.0439964421913
-3.96242609289e-05
-0.0441011307833
-0.000139986380566
-0.0441449899776
-0.000226825456261
-0.04412218133
-0.000310344607708
-0.0440279518565
-0.000392286620256
-0.043859880367
-0.000472725694327
-0.0436160195565
-0.000552518357804
-0.043294302145
-0.000632525326397
-0.0428925299224
-0.000713269175678
-0.0424084447584
-0.000794994169378
-0.0418397882008
-0.000877778605964
-0.0411843574778
-0.000961587374617
-0.0404400706335
-0.00104627918455
-0.0396050472612
-0.00113159894332
-0.0386777052844
-0.00121716492693
-0.0376568802341
-0.00130245508308
-0.0365419672689
-0.00138678972402
-0.0353330930192
-0.00146931702877
-0.0340313126108
-0.00154900101183
-0.0326388322226
-0.00162462093244
-0.0311592422839
-0.00169478222799
-0.0295977498442
-0.00175794806126
-0.0279613834663
-0.00181249022366
-0.0262591485701
-0.0018567652106
-0.024502101194
-0.00188920986791
-0.0227033179389
-0.00190845572403
-0.0208777399884
-0.00191345028528
-0.0190418856226
-0.00190357750095
-0.0172134355596
-0.00187876451462
-0.0154107137169
-0.00183956130625
-0.0136520958381
-0.00178720116259
-0.0119553796795
-0.00172359958795
-0.0103371684492
-0.00165141493681
-0.00881225724827
-0.00157383669707
-0.00739308222036
-0.00149509272372
-0.00608914406796
-0.00141878081631
-0.00490640760832
-0.00135201121834
-0.00384670093449
-0.00129201780246
-0.00290463480576
-0.00126592170813
-0.00207231611237
-0.001224791216
-0.00129862828747
-0.00144487846179
-0.000602558580152
-0.00158379567216
0.00060534405251
-0.0058040207245
-0.00911489216007
-0.00656307006601
0.0115819696249
-0.00860167406311
0.00936745084852
-0.00844015149195
0.00640639602145
-0.00868336490327
0.00606014654608
-0.00944492722973
0.00555732641853
-0.0104684721886
0.00517398367766
-0.0117630223149
0.00493506565114
-0.0131615461086
0.00467895528343
-0.0145431380507
0.0043630053115
-0.0158433650932
0.00400926677338
-0.0170319212825
0.00364582729633
-0.0180979134957
0.00329093625934
-0.0190417078852
0.00295463270731
-0.0198694539491
0.00264206772466
-0.0205897746226
0.00235530760149
-0.0212120369509
0.00209433679303
-0.021745472958
0.00185783654258
-0.0221987234987
0.00164379968643
-0.0225796194969
0.00144994843115
-0.0228951113072
0.00127397990935
-0.0231512806857
0.00111370136575
-0.0233533976033
0.000967097474457
-0.02350599446
0.000832360773623
-0.0236129491443
0.000707896108204
-0.0236775660526
0.000592313976824
-0.0237026555968
0.000484413941119
-0.0236906064374
0.000383170311944
-0.0236434514901
0.000287709957498
-0.0235629304616
0.000197314799375
-0.0234505325521
0.000111378520731
-0.0233076160208
2.95479647967e-05
-0.0231353712242
-4.85870749458e-05
-0.0229345663578
-0.000122879130033
-0.0226974126408
-0.000198656572526
-0.0223753643645
-0.000291705470539
-0.0220193876319
-0.00032157030666
-0.0216953251839
-0.000363649665021
-0.0214103433129
-0.000424930992724
-0.0211584475446
-0.000478683415501
-0.0209419615454
-0.000526792844536
-0.0207614896837
-0.000572720647653
-0.0206169987519
-0.000617179144007
-0.0205089344982
-0.000660545553949
-0.0204379141788
-0.000703509220708
-0.0204042856038
-0.000746862198162
-0.020407863486
-0.000791381585905
-0.0204477623262
-0.000837846296577
-0.0205222543924
-0.000887062829111
-0.0206286375526
-0.000939865024692
-0.0207631112947
-0.000997095245838
-0.0209206671301
-0.00105958074463
-0.0210949927165
-0.0011281021724
-0.0212783997799
-0.00120335696354
-0.0214617806624
-0.00128591139118
-0.0216346116353
-0.00137614683963
-0.021785013923
-0.00147419626899
-0.0218998954107
-0.0015798797848
-0.0219651842542
-0.00169263894858
-0.0219661719976
-0.00181148345408
-0.0218879641476
-0.00193495457078
-0.0217160344558
-0.00206112210122
-0.0214368533874
-0.00218761968841
-0.0210385553205
-0.00231173201701
-0.0205115870031
-0.00243052959369
-0.0198492813238
-0.00254105441746
-0.0190482952442
-0.00264053143082
-0.0181088647671
-0.00272661578565
-0.0170348610515
-0.00279758696996
-0.0158336111939
-0.00285264815101
-0.014515546931
-0.00289188328967
-0.0130935257458
-0.00291709524814
-0.0115820945924
-0.00293019129653
-0.00999529411229
-0.00293879005326
-0.00834586856146
-0.00294141820418
-0.00663838545816
-0.0029733814388
-0.00488638795278
-0.00297676158399
-0.00309468706329
-0.0032365573701
-0.0014653632075
-0.00321310903222
-7.34324052415e-06
-0.00726198054017
-0.00912224000435
-0.0120574268973
0.0236396248098
-0.0082061605942
0.00551626195506
-0.00651076317308
0.00471104282685
-0.00676313144885
0.00631254859852
-0.00800880510136
0.00680302632702
-0.00969158332764
0.0068567811868
-0.011477931552
0.00672142884858
-0.0131959566265
0.00639699251773
-0.0147783338114
0.00594539301715
-0.0162119826891
0.00544292448116
-0.0175043639975
0.00493821561163
-0.0186695982261
0.00445617543221
-0.0197234609669
0.00400849801405
-0.0206809109838
0.00359951802204
-0.0215549255897
0.00322931990393
-0.0223562699745
0.00289567666648
-0.0230937081989
0.00259526773504
-0.0237743217982
0.00232440429036
-0.0244038222865
0.00207943760731
-0.0249868281495
0.00185697281185
-0.0255271037035
0.00165396191005
-0.0260277532929
0.00146773074106
-0.0264913786726
0.00129596807089
-0.0269202009965
0.00113669936531
-0.0273161584254
0.000988250865965
-0.0276809810851
0.000849215383004
-0.0280162477111
0.000718414514167
-0.0283234352957
0.000594874707611
-0.0286039235689
0.00047777925164
-0.0288590590573
0.000366489954627
-0.0290898911146
0.000260355108162
-0.0292975647299
0.000159061529361
-0.0294820881272
6.16185752984e-05
-0.0296520079365
-2.87629126496e-05
-0.0298268857178
-0.000116854896534
-0.0299123977523
-0.00023608624821
-0.0299266075673
-0.000349469088703
-0.0298798973894
-0.000471671335442
-0.0297645426805
-0.000594069502833
-0.0295798242603
-0.000711543672445
-0.0293277833528
-0.000824795071721
-0.0290103129318
-0.000934684150632
-0.0286295332816
-0.00104136069955
-0.0281881961797
-0.00114488281622
-0.0276897081101
-0.00124538736436
-0.0271381131881
-0.00134301441179
-0.0265381250181
-0.00143787257227
-0.0258951660431
-0.00153006041855
-0.0252153761296
-0.0016196932885
-0.0245055856082
-0.00170692424836
-0.0237732444436
-0.00179195963593
-0.0230263067519
-0.00187507730565
-0.0222730567181
-0.00195664321692
-0.0215218739589
-0.00203712967738
-0.0207809267003
-0.00211712800159
-0.0200577987895
-0.00219735703361
-0.0193590520292
-0.00227865747226
-0.0186897492948
-0.00236197128272
-0.018052964093
-0.0024482961353
-0.0174493276115
-0.0025386170093
-0.0168766610289
-0.0026338124105
-0.0163297555842
-0.00273454718711
-0.0158003455824
-0.0028411617515
-0.0152773147393
-0.00295357832827
-0.0147471418538
-0.00307124274317
-0.0141945764479
-0.0031931102292
-0.0136034979432
-0.00331770507472
-0.0129579150803
-0.00344317833891
-0.0122430323613
-0.00356753653741
-0.0114463869173
-0.00368853173064
-0.0105588633538
-0.0038046184037
-0.00957591850795
-0.00391313282873
-0.00849754002334
-0.00401716118599
-0.00732993962445
-0.00410901008775
-0.00607914980926
-0.00422415820657
-0.00476651633087
-0.00428938533068
-0.00339005197648
-0.00461301005693
-0.00208811534655
-0.00451502123382
-0.000617744415733
-0.00873236739911
-0.00973997217684
-0.00273953973211
0.0263791764481
-0.00144346846353
0.00422022027999
-0.00335143293457
0.00661903633422
-0.00572866913251
0.0086898092666
-0.00797827675567
0.00905265323758
-0.0100363497835
0.00891486889998
-0.0118249043133
0.00850999426272
-0.0133414405084
0.0079135370163
-0.0146325543479
0.00723651310046
-0.0157477565064
0.00655813112174
-0.0167255771923
0.00591603890852
-0.0175944355678
0.00532503431124
-0.0183750045253
0.0047890652316
-0.0190819201005
0.0043064292791
-0.0197252487175
0.00387264167395
-0.0203118047174
0.0034822229622
-0.0208462025276
0.0031296532155
-0.0213316122109
0.00280979869858
-0.0217702703291
0.00251807787229
-0.0221638194221
0.00225050115014
-0.0225135279534
0.00200364724418
-0.0228204308057
0.00177460761771
-0.0230854137234
0.00156092275361
-0.0233092638522
0.00136051864612
-0.0234926966585
0.001171650767
-0.0236363702476
0.000992853633729
-0.0237408913871
0.000822898451408
-0.0238068114003
0.000660755247622
-0.0238346311186
0.00050555776898
-0.0238247596638
0.000356575119577
-0.0237775987726
0.000213149183482
-0.023693245103
7.46607465148e-05
-0.0235716847636
-5.99905417097e-05
-0.0234078272051
-0.000192671375531
-0.0232148618675
-0.000309873258062
-0.0230359443236
-0.000415058827927
-0.0228658660162
-0.000519604170654
-0.0227140449573
-0.000623550994877
-0.0225801574056
-0.000728017256592
-0.022460592082
-0.00083117069666
-0.0223525485274
-0.000932901684336
-0.0222531540725
-0.00103414272566
-0.0221589226955
-0.00113565718677
-0.0220658578425
-0.00123801329437
-0.0219695446988
-0.00134176664015
-0.0218651679704
-0.00144745715802
-0.0217475598396
-0.0015555466605
-0.0216113028909
-0.00166638253937
-0.0214508788526
-0.00178018182825
-0.0212608515295
-0.00189701462204
-0.0210360843028
-0.00201678863707
-0.0207719834578
-0.00213923786238
-0.0204647607183
-0.00226392384064
-0.0201116950918
-0.00239025061336
-0.0197113755912
-0.00251750053018
-0.0192638922086
-0.00264489049259
-0.0187709450269
-0.00277165212365
-0.0182358318791
-0.00289712872798
-0.017663286493
-0.00302088302889
-0.0170591433229
-0.00314279844278
-0.0164298306709
-0.00326316046954
-0.0157817136835
-0.00338269636094
-0.0151203405306
-0.00350256421695
-0.014449666908
-0.0036242780785
-0.0137713502322
-0.00374958264429
-0.0130842136692
-0.00388026686034
-0.0123839553841
-0.00401798051123
-0.0116631897722
-0.0041639579903
-0.0109118582575
-0.0043188791523
-0.0101181118557
-0.00448228597828
-0.0092696186549
-0.00465311635024
-0.00835585513392
-0.00482689753645
-0.00737029291326
-0.00500272239426
-0.00631560628045
-0.00516369201677
-0.00520117384378
-0.00533858686898
-0.0040591912791
-0.00543136030984
-0.00289088044651
-0.0057813163804
-0.00181683658094
-0.00558907613819
-0.000468753998914
-0.0100804305503
-0.0102087397652
-0.000145926563191
0.0265251924348
-0.000582543705449
0.00465687108064
-0.00400607358589
0.0100425878366
-0.00687479758943
0.0115585510322
-0.00910942190532
0.0112872921212
-0.0109025192821
0.0107079777719
-0.0123247981567
0.00993228214106
-0.013469304826
0.00905805065592
-0.014429809025
0.00819702270967
-0.0152717552832
0.00740008130688
-0.0160352115017
0.00667949752692
-0.0167441948025
0.00603401831857
-0.017412650748
0.00545751990682
-0.0180480478479
0.00494182299086
-0.0186538467242
0.00447843471242
-0.0192311951145
0.0040595630492
-0.0197800184816
0.00367846549736
-0.0202996829524
0.00332944941624
-0.0207893813851
0.00300775958955
-0.0212483451792
0.00270944548278
-0.0216759519841
0.00243123156066
-0.0220717710072
0.00217040141454
-0.0224355756142
0.00192469912007
-0.0227673380089
0.00169225012338
-0.0230672185857
0.00147149747082
-0.0233355528246
0.00126115140631
-0.0235728415812
0.00106014785723
-0.0237797404731
0.000867612257725
-0.0239570589262
0.00068283149517
-0.024105742513
0.000505211459481
-0.0242269328115
0.000334289417991
-0.0243219510925
0.000169626550457
-0.0243932832442
1.12863611119e-05
-0.0244449837155
-0.000141028916407
-0.024454498397
-0.000300419245618
-0.0244120393723
-0.000457580616389
-0.0243194656341
-0.000612242719939
-0.0241776229056
-0.000765460346689
-0.0239894490025
-0.000916259376812
-0.0237575362567
-0.00106315305987
-0.0234851622407
-0.00120534635359
-0.0231764420677
-0.00134293442947
-0.0228358801969
-0.00147629097366
-0.0224681390564
-0.00160582661208
-0.0220779215659
-0.0017320559844
-0.0216698108424
-0.00185563932649
-0.0212480762875
-0.00197735161443
-0.0208164873081
-0.00209804083004
-0.02037814549
-0.00221859121832
-0.0199353430806
-0.00233988287042
-0.0194894554139
-0.00246273977986
-0.0190408833069
-0.00258787114162
-0.0185890558002
-0.00271580964023
-0.018132506662
-0.00284685528028
-0.0176690287313
-0.00298103073221
-0.0171959086358
-0.00311805977412
-0.0167102291119
-0.00325737735978
-0.0162092179079
-0.003398182398
-0.0156906025035
-0.00353953738138
-0.0151529221174
-0.00368051452396
-0.0145957337949
-0.00382038106352
-0.0140196583408
-0.00395880092829
-0.0134262177483
-0.00409603065529
-0.0128174538883
-0.00423306474821
-0.0121953379604
-0.00437171827456
-0.0115610534573
-0.00451456816349
-0.0109142079121
-0.00466483998418
-0.0102521507117
-0.00482602637279
-0.00956949033505
-0.00500154814443
-0.00885801062524
-0.00519377164847
-0.00810706624925
-0.00540406416781
-0.00730515515375
-0.00562880975872
-0.00644181628189
-0.00586606010487
-0.00551336716883
-0.00609213991488
-0.00452213259131
-0.00632981809087
-0.00349708644111
-0.00645640579779
-0.00244115567956
-0.00683724581707
-0.00150921594255
-0.00652100662856
-0.000291870430546
-0.0112978009999
-0.0105006119368
0.000529439565904
0.0259957180179
-0.00148145718856
0.00666776733495
-0.00545439831071
0.0140155381065
-0.00802782918253
0.0141319926446
-0.00980911924031
0.0130685926524
-0.011128418588
0.0120272866117
-0.0121244501987
0.0109283219323
-0.0129267184381
0.00986032591569
-0.0136284562437
0.00889876637598
-0.0142811169312
0.00805274682527
-0.01491022979
0.00730861408212
-0.0155272433691
0.0066510343592
-0.0161356355255
0.00606591309356
-0.0167344385323
0.00554062536347
-0.017320470161
0.0050644638738
-0.0178896748965
0.00462876322565
-0.0184378734221
0.00422665729478
-0.0189611569053
0.00385272376376
-0.0194560724737
0.00350266363269
-0.0199196870529
0.00317304593358
-0.0203495825427
0.00286111041296
-0.0207438173635
0.00256461689365
-0.0211008735891
0.00228173344816
-0.0214196022492
0.00201095414697
-0.0216991713701
0.00175103939885
-0.0219390208113
0.0015009709183
-0.0221388225262
0.00125991709495
-0.0222984498104
0.00102720432588
-0.0224179460353
0.00080228993078
-0.0224975196571
0.000584744533055
-0.0225374773669
0.000374204036475
-0.0225382947663
0.000170398150993
-0.0224999600941
-2.70966423712e-05
-0.0224229960372
-0.000218044024008
-0.0223250289223
-0.00039843972018
-0.0222104767369
-0.000572188001524
-0.0220813690899
-0.00074140720864
-0.0219397690487
-0.000907118625186
-0.0217859977807
-0.0010700900795
-0.0216189251344
-0.00123028599406
-0.0214367073837
-0.00138762505892
-0.0212373379427
-0.00154236507018
-0.0210187720662
-0.00169491812067
-0.0207790040098
-0.00184565554086
-0.0205162176133
-0.00199490269993
-0.0202289310125
-0.00214298520873
-0.0199160976154
-0.00229024312553
-0.0195771682015
-0.00243702671911
-0.0192121192183
-0.00258369493736
-0.01882144115
-0.00273061350045
-0.0184060851666
-0.00287814608548
-0.0179673693176
-0.00302663469702
-0.0175068532799
-0.00317637074503
-0.0170261928067
-0.00332755788257
-0.0165269922048
-0.00348027055009
-0.0160106749059
-0.00363441317085
-0.015478396614
-0.00378968871308
-0.0149310216303
-0.00394558730725
-0.0143691761992
-0.00410140973764
-0.0137933810077
-0.00425633362961
-0.0132042369339
-0.00440954620906
-0.0126026264458
-0.00456042968363
-0.0119898584972
-0.00470881422481
-0.0113677021811
-0.00485523408992
-0.0107382193913
-0.00500121160244
-0.0101034231798
-0.00514937260841
-0.00946468195565
-0.00530358711785
-0.00882205189745
-0.00546866056192
-0.00817357258951
-0.00565002951293
-0.00751476514718
-0.00585257977002
-0.00683838546081
-0.00608044270726
-0.00613517794762
-0.00633201513073
-0.00539484970861
-0.00660638562986
-0.0046107844814
-0.00687620224393
-0.00377889202565
-0.00716170975729
-0.00292066291481
-0.00731463321519
-0.00203189877749
-0.00772600963681
-0.00129014781134
-0.00726277177196
-0.000218324592126
-0.0123696241066
-0.0107189480375
0.000578496820938
0.0254172427523
-0.00250371544078
0.0097499847558
-0.00642959208165
0.0179414184068
-0.00845080061614
0.0161532070002
-0.00976440059483
0.0143821996905
-0.0107022121108
0.0129651056075
-0.0114159837737
0.0116421010406
-0.0120316477056
0.0104759968148
-0.0126187925542
0.0094859176746
-0.0132070417099
0.00864100174066
-0.0138069365915
0.00790851403857
-0.01441962592
0.00726372790219
-0.0150412654047
0.00668755582124
-0.0156656676077
0.00616502962585
-0.0162859199699
0.00568471692702
-0.0168952624491
0.00523810484724
-0.0174875205294
0.00481891278031
-0.018057294384
0.00442249317723
-0.0186000106337
0.00404537343018
-0.0191118957472
0.00368492254465
-0.019589909611
0.00333911358503
-0.0200316636178
0.00300635803502
-0.0204353383009
0.00268539297438
-0.0207996075473
0.0023752059993
-0.0211235735465
0.00207498566536
-0.0214067123431
0.00178408771539
-0.021648831738
0.00150201212666
-0.0218500361919
0.00122838211373
-0.0220107087243
0.000962933401869
-0.0221314816356
0.000705486056476
-0.0222132697814
0.000455958437661
-0.022257185844
0.000214278291087
-0.0222647866542
-1.95341019444e-05
-0.02223672501
-0.000246146186355
-0.0221672886782
-0.000467918241111
-0.0220566404608
-0.000682879734959
-0.0219063812926
-0.000891710965622
-0.0217188898334
-0.00109465557207
-0.0214972825204
-0.00129174346553
-0.0212447219504
-0.00148289305028
-0.0209643148385
-0.00166807871852
-0.0206591687506
-0.0018475575972
-0.0203322760784
-0.00202185675648
-0.019986323476
-0.00219165346908
-0.0196235563842
-0.0023577141226
-0.0192457060152
-0.0025208787644
-0.018853956136
-0.00268203471852
-0.0184489503711
-0.00284207259128
-0.0180308444077
-0.00300183911469
-0.0175993996458
-0.00316209446874
-0.0171541062052
-0.00332347349401
-0.0166943210997
-0.00348645144512
-0.0162194049004
-0.00365131609959
-0.0157288405512
-0.0038181488502
-0.0152223197932
-0.00398681530734
-0.014699787589
-0.00415696675734
-0.0141614439473
-0.00432805112523
-0.0136077134728
-0.00449933400703
-0.013039199137
-0.00466993783138
-0.0124566597216
-0.00483888445342
-0.0118610155897
-0.00500519951049
-0.0112534183574
-0.00516803394762
-0.0106353355547
-0.00532690208601
-0.0100086632865
-0.00548190937911
-0.00937570203741
-0.00563417420996
-0.00873910747754
-0.00578596658677
-0.00810148771886
-0.00594120499416
-0.00746499795402
-0.00610514693841
-0.00683067460375
-0.00628434868858
-0.00619794519882
-0.00648530408715
-0.00556416730901
-0.00671421508401
-0.00492500244006
-0.00697117409708
-0.00427503436536
-0.00725634849673
-0.00361126836255
-0.00753996484871
-0.00293084124708
-0.00784213544776
-0.0022534120547
-0.00799206307782
-0.00156646004737
-0.00841296437065
-0.00105471994279
-0.00777451058106
-0.000152946944801
-0.0132714175803
-0.0108719046526
0.000436258397178
0.0249809417713
-0.00344645957746
0.0136326863199
-0.00693115692807
0.0214261113867
-0.00832355691215
0.017545607629
-0.00925573667081
0.0153143833432
-0.00993788953352
0.0136472641995
-0.0105003318733
0.0122045498293
-0.0110411566343
0.0110168281873
-0.0115998209756
0.0100445883087
-0.0121872222473
0.00922840891056
-0.0128034145718
0.00852471168812
-0.013443112868
0.00790343093648
-0.0140982707543
0.00734271768302
-0.0147598886334
0.00682665061793
-0.0154191060411
0.00634393638699
-0.0160677525033
0.00588675216142
-0.0166985913238
0.00544975108787
-0.0173053968487
0.00502929669592
-0.0178829356462
0.00462290862072
-0.0184268935839
0.00422887517208
-0.0189337779522
0.00384599088377
-0.0194008139757
0.00347338515287
-0.0198258467061
0.00311041494603
-0.0202072538865
0.00275660051554
-0.0205438716053
0.00241158882233
-0.0208349327111
0.00207513232728
-0.0210800173635
0.00174707836169
-0.0212790128567
0.00142735723944
-0.021432085642
0.00111598387208
-0.0215396523737
0.000813028545783
-0.0216023764004
0.000518656371072
-0.0216211181251
0.000232992105902
-0.0215971346048
-4.35472947934e-05
-0.02153279168
-0.000310520425479
-0.0214328859869
-0.000567856294253
-0.0212987976083
-0.000817001191039
-0.0211322797201
-0.00105826250967
-0.0209348043949
-0.00129216485412
-0.0207075501021
-0.00151903187714
-0.0204514926747
-0.00173898446922
-0.0201675161128
-0.00195208900546
-0.0198565930345
-0.00215851384609
-0.0195198945461
-0.00235858772479
-0.0191588019281
-0.00255277760599
-0.0187748754869
-0.00274167099167
-0.0183698021231
-0.00292598122553
-0.0179453174552
-0.0031065470299
-0.017503106976
-0.00328430905982
-0.0170447037747
-0.00346026653664
-0.0165714010558
-0.00363541948863
-0.0160841945565
-0.00381070027699
-0.0155837652427
-0.00398689893482
-0.0150705071041
-0.00416459023798
-0.0145445963375
-0.00434407341764
-0.014006091717
-0.00452533150836
-0.0134550459616
-0.00470802191798
-0.0128916074731
-0.00489149689258
-0.0123160962841
-0.00507485045193
-0.0117290281139
-0.0052570093356
-0.0111311340018
-0.00543678010745
-0.0105233321501
-0.00561300115985
-0.00990675814343
-0.00578460625205
-0.0092827596321
-0.00595089717874
-0.00865304514646
-0.00611161919716
-0.00801962159705
-0.00626759134988
-0.00738502821434
-0.00642055242773
-0.00675195822855
-0.00657426619965
-0.00612329508928
-0.00673380061814
-0.00550154222943
-0.00690609190688
-0.00488875181971
-0.00709808451862
-0.0042860438149
-0.00731691348973
-0.00369399878265
-0.0075632103075
-0.00311379784098
-0.00783654239153
-0.00254997762999
-0.00810378150744
-0.00200561890151
-0.00838649357533
-0.00150225167695
-0.00849543329419
-0.00102913209235
-0.00888608539766
-0.000751778420855
-0.00805187765949
-3.58529384757e-05
-0.0139873579965
-0.0109077661647
0.000220333075204
0.024760605654
-0.00416708848186
0.0180200990408
-0.00695978151783
0.0242187969732
-0.00780213010576
0.018387953806
-0.00849945894136
0.0160117134871
-0.00905131393482
0.0141991230619
-0.00956269740825
0.0127159386451
-0.0100985887992
0.0115527253768
-0.0106747252729
0.0106207306011
-0.0112912574155
0.00984494650665
-0.0119429509272
0.00917641026005
-0.0126213428724
0.00858182738696
-0.0133163855418
0.00803776429731
-0.0140177969683
0.007528065252
-0.0147158597816
0.00704200160159
-0.0154018123766
0.0065727061658
-0.0160680064504
0.006115945495
-0.0167079304631
0.00566921981458
-0.0173161537272
0.00523112969759
-0.0178882284617
0.00480094631964
-0.0184205755151
0.00437833290991
-0.0189103705839
0.00396317368593
-0.0193554398099
0.00355547611368
-0.0197541690776
0.00315532016324
-0.0201054277487
0.00276283632353
-0.0204085062798
0.0023781981133
-0.0206630666119
0.00200162440214
-0.0208691016886
0.00163337644866
-0.0210269101991
0.00127377499527
-0.021137063996
0.000923163433473
-0.021200438598
0.000582010680333
-0.0212181304208
0.000250662316068
-0.0211917235065
-6.99771144371e-05
-0.0211213526426
-0.000380915277918
-0.0210071485167
-0.000682084808956
-0.020850879771
-0.000973294609893
-0.0206545013778
-0.00125466561849
-0.0204204219204
-0.00152626896224
-0.0201512689164
-0.00178820923074
-0.0198496847885
-0.0020405925384
-0.0195182194531
-0.00228357765098
-0.0191592998652
-0.00251745600467
-0.0187752190895
-0.00274269013061
-0.0183681150483
-0.00295990222834
-0.0179399536291
-0.00316985177185
-0.0174925280484
-0.0033734248386
-0.0170274660338
-0.0035716256124
-0.016546233624
-0.00376555646518
-0.0160501310472
-0.00395638244347
-0.015540281897
-0.00414528020537
-0.0150176197471
-0.00433337219017
-0.0144828794649
-0.00452164710327
-0.0139366033274
-0.00471087240242
-0.0133791673512
-0.00490151353133
-0.0128108374963
-0.00509366367879
-0.0122318463532
-0.00528701359232
-0.0116424820247
-0.00548086007731
-0.0110431852143
-0.00567414451514
-0.0104345780879
-0.00586561228719
-0.00981754339859
-0.00605380912168
-0.00919316438907
-0.00623737331739
-0.00856279605742
-0.00641496626939
-0.00792792300637
-0.00658576068978
-0.00729040426439
-0.00674912708065
-0.00665215807999
-0.00690582539245
-0.00601577699485
-0.00705692014885
-0.00538383090747
-0.0072061979593
-0.00475956631717
-0.00735805108365
-0.00414608682109
-0.00751955760163
-0.00354753035034
-0.00769662846025
-0.00296797371138
-0.0078964587064
-0.00241279658002
-0.0081183777325
-0.00189147958915
-0.0083578530869
-0.00141723486454
-0.00857802260466
-0.00100437668893
-0.00879935460023
-0.000662226276015
-0.00883758574226
-0.000448945786808
-0.00909937350381
-0.000366262910683
-0.00813456782515
0.000237431006525
-0.0145910664848
-0.0106703517259
-3.32417188267e-06
0.0247638912524
-0.00463750641709
0.022654259233
-0.00663870774343
0.0262199870044
-0.00709523168994
0.018844472048
-0.00768892066864
0.016605401566
-0.00818955458537
0.0146997592816
-0.00870004928306
0.0132264373798
-0.00925718586811
0.0121098667492
-0.00986314040709
0.0112266898814
-0.010513678283
0.0104954888559
-0.0112010789197
0.00986381487174
-0.0119151137889
0.00929586577988
-0.0126445778571
0.00876723130305
-0.013378452961
0.00826194271374
-0.014106559745
0.00777010999152
-0.0148198641929
0.00728601142512
-0.0155105783586
0.00680665950893
-0.0161721385952
0.00633077889522
-0.016799115616
0.00585810442446
-0.0173870927306
0.00538891998258
-0.0179325367383
0.00492377221112
-0.0184326751239
0.0044633061149
-0.0188853867756
0.00400818049265
-0.0192891085096
0.00355903333966
-0.0196427571746
0.00311647510296
-0.0199456663333
0.00268109611349
-0.020197534533
0.00225348013371
-0.020398385112
0.00183421332234
-0.0205485332332
0.00142390814879
-0.0206485588541
0.00102317296275
-0.0206992872591
0.000632721892935
-0.0207017287254
0.000253085653908
-0.0206571351784
-0.000114589700818
-0.0205672924995
-0.000470777524521
-0.0204337541909
-0.000815642732317
-0.0202579395143
-0.00114912874027
-0.0200415353883
-0.00147108895169
-0.0197863652273
-0.00178145788096
-0.0194944019882
-0.00208019069431
-0.0191677453918
-0.00236726664311
-0.0188086073582
-0.00264273239363
-0.018419311765
-0.00290676734707