/*--------------------------------*- C++ -*----------------------------------*\
| =========                 |                                                 |
| \\      /  F ield         | OpenFOAM: The Open Source CFD Toolbox           |
|  \\    /   O peration     | Version:  v1806                                 |
|   \\  /    A nd           | Web:      www.OpenFOAM.com                      |
|    \\/     M anipulation  |                                                 |
\*---------------------------------------------------------------------------*/
FoamFile
{
    version     2.0;
    format      ascii;
    class       volVectorField;
    location    "900";
    object      U;
}
// * * * * * * * * * * * * * * * * * * * * * * * * * * * * * * * * * * * * * //

dimensions      [0 1 -1 0 0 0 0];


internalField   nonuniform List<vector> 
6400
(
(0.00912345997802 0.019216638064 0)
(0.0228993139498 0.012924566076 0)
(0.0297195451877 0.00984309096223 0)
(0.0281456702405 0.0077763427312 0)
(0.0228699907698 -0.000234926457289 0)
(-0.00983699130231 -0.0153724676815 0)
(-0.0364564255094 -0.0158691034116 0)
(-0.0608458136929 -0.0150238997815 0)
(-0.0858718936236 -0.0144577027878 0)
(-0.110395683777 -0.0138564795003 0)
(-0.134147626516 -0.0131774172218 0)
(-0.156897124894 -0.0124401083626 0)
(-0.178486542962 -0.0116707205523 0)
(-0.198818463299 -0.0108924989831 0)
(-0.217844494957 -0.0101236973108 0)
(-0.235554267693 -0.00937760681003 0)
(-0.251965584808 -0.00866319002734 0)
(-0.267116038364 -0.00798587363006 0)
(-0.281056165691 -0.00734833196256 0)
(-0.29384407522 -0.00675119039729 0)
(-0.305541383787 -0.0061936202539 0)
(-0.316210267047 -0.00567381954736 0)
(-0.325911415939 -0.00518938627391 0)
(-0.334702704119 -0.00473759740452 0)
(-0.342638394539 -0.00431560915312 0)
(-0.349768741199 -0.0039205939854 0)
(-0.356139870367 -0.00354982812997 0)
(-0.361793849745 -0.00320074084711 0)
(-0.366768873388 -0.00287093355762 0)
(-0.371099505731 -0.00255817404776 0)
(-0.374816950139 -0.00226037087896 0)
(-0.377949334668 -0.00197553407333 0)
(-0.380521982729 -0.00170170106125 0)
(-0.382557502444 -0.00143672532667 0)
(-0.384075414786 -0.00117785139254 0)
(-0.385091354087 -0.000921476593387 0)
(-0.385617025096 -0.00066399473619 0)
(-0.385664399176 -0.000403972834499 0)
(-0.385239711923 -0.000143333634244 0)
(-0.38434623578 0.000113369267604 0)
(-0.382998713164 0.000363436522581 0)
(-0.381209918815 0.00060678254803 0)
(-0.37899191131 0.000844061457302 0)
(-0.376355290131 0.00107617560528 0)
(-0.373309028889 0.00130409915654 0)
(-0.369860432184 0.00152881523933 0)
(-0.366015148868 0.00175128838352 0)
(-0.36177721965 0.00197244541767 0)
(-0.357149159132 0.00219315552664 0)
(-0.352132079498 0.00241420664653 0)
(-0.346725864438 0.00263627829347 0)
(-0.340929400096 0.00285991237155 0)
(-0.334740865901 0.00308548469033 0)
(-0.328158082474 0.00331318068375 0)
(-0.321178906728 0.00354297959284 0)
(-0.313801656174 0.00377465170811 0)
(-0.306025535858 0.00400777351484 0)
(-0.297851033051 0.00424176524538 0)
(-0.289280237545 0.00447595487645 0)
(-0.280317039434 0.0047096718181 0)
(-0.270967151931 0.0049423728596 0)
(-0.261237904505 0.0051738017312 0)
(-0.251137751743 0.00540418268798 0)
(-0.240675445928 0.00563444735047 0)
(-0.229858825836 0.00586649268418 0)
(-0.21869317911 0.00610346762316 0)
(-0.207179144968 0.00635008467123 0)
(-0.195310147718 0.00661294459584 0)
(-0.183069373708 0.00690085002345 0)
(-0.17042628242 0.0072250747556 0)
(-0.157332650261 0.0075995014001 0)
(-0.143718552122 0.0080405058835 0)
(-0.129489969389 0.00856620853743 0)
(-0.114530185368 0.00919372211178 0)
(-0.0987003821394 0.00993227424086 0)
(-0.0818257887375 0.0107737653832 0)
(-0.063708905857 0.0116876148811 0)
(-0.0444360701335 0.0125808227002 0)
(-0.0253715535523 0.0129602403759 0)
(-0.0100258687009 0.0105954708796 0)
(0.000181583183196 0.0284340995873 0)
(0.012052760978 0.01550636779 0)
(0.00686970361098 -0.00177801236151 0)
(-0.0220466854852 -0.0218116488975 0)
(-0.0406936530447 -0.0301649073985 0)
(-0.063591306852 -0.0357914908073 0)
(-0.0873410707086 -0.037209647963 0)
(-0.111939105997 -0.0373017599459 0)
(-0.136857827608 -0.0368513334515 0)
(-0.161241687638 -0.0359084429419 0)
(-0.18473509282 -0.0345705052399 0)
(-0.207091341253 -0.0329433404257 0)
(-0.228157599297 -0.0311236282816 0)
(-0.247848072826 -0.0291930887733 0)
(-0.266128354875 -0.0272171193047 0)
(-0.283002285171 -0.0252456297433 0)
(-0.298501018674 -0.0233148628694 0)
(-0.312674098966 -0.0214496009584 0)
(-0.325582399667 -0.0196654152037 0)
(-0.337292737668 -0.0179707584428 0)
(-0.347873917871 -0.016368794989 0)
(-0.357393953722 -0.0148589256372 0)
(-0.365918217577 -0.013438008572 0)
(-0.373508301044 -0.0121013024816 0)
(-0.380221399444 -0.0108431707433 0)
(-0.386110069905 -0.00965758912449 0)
(-0.391222245862 -0.00853849715466 0)
(-0.395601418923 -0.00748002750222 0)
(-0.399286919884 -0.00647664080771 0)
(-0.402314244526 -0.00552318795786 0)
(-0.404715387944 -0.00461492199284 0)
(-0.406519203967 -0.00374747500308 0)
(-0.407751860335 -0.00291674014404 0)
(-0.40843728397 -0.00211843174188 0)
(-0.408596855102 -0.00134735023587 0)
(-0.408247450826 -0.000598082478498 0)
(-0.407399116338 0.000130756624345 0)
(-0.406088725905 0.000837000659672 0)
(-0.404343646077 0.00152169315217 0)
(-0.402191131855 0.00218614952344 0)
(-0.399643405138 0.00283085190832 0)
(-0.396710862733 0.00345752844133 0)
(-0.393401617567 0.00406831378947 0)
(-0.389722348545 0.00466549724365 0)
(-0.385678477907 0.00525141293673 0)
(-0.381274208196 0.00582838821543 0)
(-0.376512521306 0.00639870622247 0)
(-0.371395184008 0.00696456407208 0)
(-0.365922781416 0.00752801902888 0)
(-0.360094792696 0.00809092082388 0)
(-0.353909719981 0.00865483183946 0)
(-0.347365278391 0.00922093974469 0)
(-0.340458650941 0.00978996966952 0)
(-0.333186806638 0.0103621052345 0)
(-0.325546873189 0.0109369295249 0)
(-0.31753654779 0.0115133982589 0)
(-0.30915452092 0.0120898577004 0)
(-0.30040087976 0.0126641190958 0)
(-0.291277450818 0.0132335995006 0)
(-0.281788035846 0.0137955366255 0)
(-0.271938491198 0.0143472831527 0)
(-0.261736599184 0.0148866824348 0)
(-0.251191681353 0.0154125241187 0)
(-0.240313907322 0.0159250757592 0)
(-0.229113260363 0.0164266809837 0)
(-0.217598128978 0.0169224147563 0)
(-0.20577350087 0.01742078416 0)
(-0.193638757258 0.0179344472242 0)
(-0.181185100879 0.0184808730809 0)
(-0.168392609382 0.0190829070478 0)
(-0.155226933196 0.0197690208962 0)
(-0.141635961763 0.0205729448789 0)
(-0.127547384156 0.0215319876259 0)
(-0.112868411461 0.0226813326617 0)
(-0.0974864276969 0.0240396949566 0)
(-0.0812648913159 0.02558694442 0)
(-0.0640471860901 0.0272410126976 0)
(-0.0457867414446 0.0287681775643 0)
(-0.0271724535308 0.0292733930109 0)
(-0.0110410422941 0.0258252312725 0)
(-0.00748120824949 0.0268099656978 0)
(-0.0154796770372 -0.00516286834308 0)
(-0.0349170248375 -0.0264443817186 -8.10666388368e-29)
(-0.0551006475078 -0.0409759897319 5.11676992449e-29)
(-0.075673029897 -0.051382620732 3.89605061558e-29)
(-0.097115812625 -0.0583893078499 -3.19135321758e-29)
(-0.119085835431 -0.0612782501734 2.73304283025e-29)
(-0.141599628438 -0.0618769460533 -2.43135582899e-29)
(-0.1640289687 -0.0611256602921 0)
(-0.18580310096 -0.0593967132283 0)
(-0.206597027295 -0.0569684123161 0)
(-0.226205378087 -0.0540618160933 0)
(-0.244518839168 -0.0508563222286 0)
(-0.261493498348 -0.0474947038762 0)
(-0.277131453473 -0.044086924665 0)
(-0.291465986308 -0.0407142898498 0)
(-0.30455029797 -0.0374339398172 0)
(-0.31644903564 -0.03428337978 0)
(-0.32723211064 -0.0312847415066 0)
(-0.336970368568 -0.028448567132 0)
(-0.345732710075 -0.0257770088067 0)
(-0.353584306408 -0.02326642312 0)
(-0.360585610055 -0.0209093977398 0)
(-0.366791920696 -0.0186962807303 0)
(-0.37225332247 -0.016616296215 0)
(-0.377014858146 -0.0146583296321 0)
(-0.381116844642 -0.0128114571368 0)
(-0.384595264411 -0.0110652807707 0)
(-0.387482184516 -0.0094101194629 0)
(-0.389806161854 -0.00783710151116 -6.74281140951e-29)
(-0.391592617027 -0.00633819877143 6.73745784162e-29)
(-0.39286425299 -0.00490619935462 0)
(-0.393641753863 -0.00353450672732 0)
(-0.39394450936 -0.00221664690955 0)
(-0.393789069906 -0.000946060274242 0)
(-0.393183224286 0.000281629677122 0)
(-0.392159396514 0.00146244284871 0)
(-0.390731360171 0.00259542764319 0)
(-0.388904999259 0.00368790648989 0)
(-0.386690512291 0.00474621915288 0)
(-0.384096890715 0.00577547685283 0)
(-0.381132592578 0.00677946862597 0)
(-0.377805012628 0.00776167246398 0)
(-0.374120454596 0.00872550163991 0)
(-0.370084103126 0.00967437711838 0)
(-0.365699989406 0.0106117308879 0)
(-0.360970956932 0.0115409725935 0)
(-0.355898642885 0.0124654264891 0)
(-0.350483490501 0.0133882400739 0)
(-0.344724806939 0.0143122663151 0)
(-0.338620879661 0.0152399239184 0)
(-0.332169161798 0.0161730437057 0)
(-0.325366532903 0.0171127129498 0)
(-0.318209635712 0.0180591332903 0)
(-0.310695282112 0.019011510853 0)
(-0.302820912731 0.0199679992918 0)
(-0.294585084976 0.0209257169185 0)
(-0.285987954814 0.0218808577954 0)
(-0.277031709971 0.0228289127517 0)
(-0.267720907217 0.0237650114207 0)
(-0.258062662082 0.02468439324 0)
(-0.248066637735 0.0255830083794 0)
(-0.237744783367 0.0264582404349 0)
(-0.227110775752 0.027309742356 0)
(-0.216179129713 0.0281403593446 0)
(-0.204963957594 0.0289571166073 0)
(-0.193477362624 0.0297722370487 0)
(-0.18172744395 0.0306041780662 0)
(-0.169716009103 0.0314784566915 0)
(-0.157435961555 0.0324283679815 0)
(-0.144868325317 0.0334952174777 0)
(-0.13197925226 0.03472743524 0)
(-0.118717200001 0.0361779737704 0)
(-0.105010356364 0.0378971247837 0)
(-0.0907653969415 0.0399149902075 0)
(-0.0758675443149 0.0422088284115 0)
(-0.0601713384838 0.0446495549845 0)
(-0.0435130956607 0.0468540590214 0)
(-0.0262251860403 0.047589513956 0)
(-0.0101600577206 0.0435839201895 0)
(-0.0185408306437 0.0120746282294 0)
(-0.0347334793215 -0.0235145683123 0)
(-0.0545500209041 -0.0446667684606 0)
(-0.0752053153656 -0.060799972603 0)
(-0.0957998372942 -0.0721422343011 0)
(-0.116369640535 -0.0794357072567 0)
(-0.136835419224 -0.0827230412226 0)
(-0.157132373118 -0.0832602645139 0)
(-0.1769034042 -0.0819229955951 0)
(-0.195853045585 -0.079259948564 0)
(-0.213789605418 -0.0756876150022 0)
(-0.23060007176 -0.0715262640831 0)
(-0.246238605469 -0.0670251120878 0)
(-0.260705680798 -0.0623749386326 0)
(-0.274032214808 -0.0577173563122 0)
(-0.286267165386 -0.0531530308838 0)
(-0.29746859345 -0.0487494198654 0)
(-0.307697554744 -0.0445479296769 0)
(-0.317014196455 -0.040570263044 0)
(-0.325475472429 -0.0368237980167 0)
(-0.333133979684 -0.0333059548974 0)
(-0.340037525489 -0.0300076051966 0)
(-0.346229138883 -0.0269156383229 0)
(-0.351747330333 -0.0240148284562 0)
(-0.356626472728 -0.0212891454678 0)
(-0.360897227963 -0.0187226398543 0)
(-0.364586977709 -0.0163000096592 0)
(-0.367720236095 -0.0140069335471 0)
(-0.370319023381 -0.0118302371591 0)
(-0.3724031777 -0.00975795738531 0)
(-0.373990634324 -0.00777935063753 0)
(-0.375097857354 -0.00588477919954 0)
(-0.37574063397 -0.00406528915724 0)
(-0.375934407017 -0.00231216740267 0)
(-0.375690934764 -0.00061809407023 0)
(-0.375010639365 0.00101959957876 0)
(-0.373939934998 0.00259928728745 0)
(-0.37246962484 0.0041251767229 0)
(-0.370613739037 0.0056032089373 0)
(-0.368381664354 0.00703814692974 0)
(-0.365782453503 0.0084348433461 0)
(-0.362824374682 0.00979791943352 0)
(-0.359514775154 0.011131908222 0)
(-0.355860015274 0.0124413484002 0)
(-0.351865401413 0.0137308316194 0)
(-0.347535113682 0.0150050035657 8.12824705307e-29)
(-0.342872136702 0.0162685213038 -8.20456092871e-29)
(-0.33787820733 0.0175259669116 0)
(-0.332553795343 0.0187817174315 0)
(-0.326898133777 0.0200397733657 0)
(-0.320909315273 0.0213035518222 0)
(-0.314584468845 0.0225756554427 0)
(-0.307920027524 0.0238576339744 0)
(-0.300912091106 0.0251497609649 0)
(-0.293556879884 0.0264508528028 0)
(-0.285851265109 0.0277581605996 0)
(-0.277793350527 0.029067366312 0)
(-0.269383067527 0.0303727127979 1.20628736948e-28)
(-0.260622736913 0.0316672917756 -1.23677087565e-28)
(-0.251517547207 0.0329435030747 0)
(-0.242075894458 0.0341936974239 0)
(-0.23230952296 0.035411007651 0)
(-0.22223341809 0.0365903442669 0)
(-0.211865398709 0.0377295572469 0)
(-0.201225377405 0.038830703532 0)
(-0.190334272775 0.0399014144382 0)
(-0.17921260736 0.0409562292401 0)
(-0.167878630054 0.0420181280951 0)
(-0.156346269592 0.0431194990395 0)
(-0.144622846985 0.044303217909 0)
(-0.132706195428 0.0456233178825 0)
(-0.120581803411 0.0471438740882 0)
(-0.108219943806 0.0489363797261 0)
(-0.0955715003736 0.0510732455001 0)
(-0.0825637896053 0.0536107717413 0)
(-0.0691005309142 0.0565519212111 0)
(-0.0550410144794 0.0597754934532 0)
(-0.0401028906903 0.0628790943628 0)
(-0.0245432502683 0.0644158395954 0)
(-0.00905647143867 0.0605883498388 0)
(-0.0247065449504 -0.0190877994366 0)
(-0.0416234557739 -0.044620359134 0)
(-0.0638588034313 -0.0655017650201 0)
(-0.0853815933438 -0.0814967982564 0)
(-0.10599244497 -0.0925471241066 0)
(-0.12578037391 -0.0992646394804 0)
(-0.144830714757 -0.102134794852 0)
(-0.163169855245 -0.102126504664 0)
(-0.180668643416 -0.100020126689 0)
(-0.197226266639 -0.096419386215 0)
(-0.21278244164 -0.0918087362676 0)
(-0.227315580244 -0.0865677592673 0)
(-0.240836977951 -0.0809889025054 0)
(-0.253379210394 -0.0752909188491 0)
(-0.264986542606 -0.0696312363962 0)
(-0.275707626575 -0.0641175586687 0)
(-0.285590812789 -0.0588185786133 0)
(-0.29468156749 -0.0537734761031 0)
(-0.303021371902 -0.0489999501616 0)
(-0.31064752944 -0.0445007103949 0)
(-0.317593446406 -0.0402685108275 0)
(-0.323889100192 -0.0362899113403 0)
(-0.329561532211 -0.0325479948662 0)
(-0.334635288394 -0.0290242676909 0)
(-0.339132783829 -0.025699944278 0)
(-0.343074596104 -0.0225567817427 0)
(-0.346479705898 -0.0195775912097 0)
(-0.349365699894 -0.0167465191597 0)
(-0.351748926354 -0.0140491707126 0)
(-0.353644593466 -0.0114726438987 0)
(-0.355066914836 -0.00900551461914 -7.23894417458e-29)
(-0.35602964576 -0.00663765385701 7.26652848328e-29)
(-0.356546876438 -0.00435965003194 0)
(-0.356631919418 -0.00216251463999 0)
(-0.356291511877 -4.02477790886e-05 0)
(-0.355535445798 0.00200564875711 0)
(-0.354398187594 0.00397844290863 0)
(-0.352874690232 0.00588817047082 0)
(-0.350978189526 0.00774029902308 0)
(-0.348717640052 0.00954047363219 0)
(-0.346101865593 0.0112941718926 0)
(-0.343139091994 0.0130067522915 0)
(-0.33983681561 0.0146835767082 0)
(-0.336201678834 0.0163301061113 0)
(-0.33223934918 0.017951951906 0)
(-0.32795439649 0.0195548765043 0)
(-0.323350174657 0.0211447392033 0)
(-0.318428720843 0.0227273836731 0)
(-0.313190689433 0.0243084648475 0)
(-0.30763534064 0.0258932165241 0)
(-0.301760604709 0.0274861663561 0)
(-0.295563241697 0.0290908119067 0)
(-0.289039113094 0.0307092796007 0)
(-0.282183574619 0.0323419967088 0)
(-0.274991989852 0.0339874132803 0)
(-0.267460352004 0.0356418162106 0)
(-0.259585987209 0.0372992790258 0)
(-0.251368297486 0.0389517883056 0)
(-0.242809486173 0.0405895830645 0)
(-0.233915211173 0.0422017173854 0)
(-0.224695111029 0.0437768583975 0)
(-0.215163118836 0.0453043524741 0)
(-0.205337527769 0.0467754693816 0)
(-0.195240729343 0.0481849029553 0)
(-0.18489861567 0.0495323294772 0)
(-0.174339550468 0.0508242231316 0)
(-0.16359324348 0.0520752451809 0)
(-0.152688749045 0.0533106128526 0)
(-0.141652591065 0.0545668064869 0)
(-0.130506866924 0.0558929780802 0)
(-0.119266261299 0.0573526255224 0)
(-0.107934919375 0.0590219259458 0)
(-0.0965040657938 0.0609874554866 0)
(-0.0849477705087 0.0633421869641 0)
(-0.0732149677354 0.0661711631915 0)
(-0.0612289808994 0.0695144185939 0)
(-0.0488783062139 0.0732860309033 0)
(-0.0357426679074 0.0771641501053 0)
(-0.0222817068126 0.0796227325659 0)
(-0.00780256228265 0.0762630974416 0)
(-0.0221596165108 -0.0439498441006 0)
(-0.0423690733605 -0.0690502145862 0)
(-0.0669087775223 -0.0881315380305 0)
(-0.0889644274116 -0.10270228068 0)
(-0.109424693672 -0.112531339181 0)
(-0.12845871001 -0.118114405299 0)
(-0.14627435851 -0.120027140034 0)
(-0.163010641099 -0.11909173814 0)
(-0.178705700521 -0.116031270162 0)
(-0.193394747149 -0.111456554825 0)
(-0.207116718444 -0.105872601861 0)
(-0.21991761272 -0.0996803498315 0)
(-0.231848009136 -0.0931870880964 0)
(-0.242958252725 -0.0866189478768 0)
(-0.253294998078 -0.0801348345588 0)
(-0.26289931678 -0.0738402416248 0)
(-0.271806330438 -0.0677999070187 0)
(-0.280045819609 -0.0620486583404 0)
(-0.287643275479 -0.0566002001663 0)
(-0.294621000149 -0.0514539091648 0)
(-0.300999036315 -0.046599889656 0)
(-0.306795847474 -0.0420226171385 0)
(-0.312028758136 -0.0377034950931 0)
(-0.316714204799 -0.0336226072725 0)
(-0.320867859348 -0.0297598904074 0)
(-0.324504681209 -0.0260958965175 0)
(-0.32763894425 -0.0226122670751 0)
(-0.330284261734 -0.0192920055078 0)
(-0.332453588512 -0.0161196131286 0)
(-0.334159183051 -0.0130811436844 0)
(-0.335412730615 -0.0101641981652 0)
(-0.336226098343 -0.0073577666133 0)
(-0.336612090411 -0.00465181125877 0)
(-0.336581312941 -0.00203730145628 0)
(-0.336133571983 0.000491324879759 0)
(-0.335304308593 0.00293202171178 0)
(-0.334088653116 0.00528890603809 0)
(-0.332499368052 0.00757254100934 0)
(-0.330546877098 0.00978883522475 0)
(-0.328240699033 0.0119438901024 0)
(-0.325589885605 0.0140436969117 0)
(-0.322603002919 0.0160942541975 0)
(-0.319288033201 0.0181016890839 0)
(-0.315652233739 0.0200723588593 0)
(-0.311701973065 0.0220129098322 0)
(-0.307442553951 0.0239302804817 0)
(-0.30287803442 0.0258316386078 0)
(-0.298011062507 0.0277242436718 0)
(-0.292842745498 0.0296152282126 0)
(-0.287372578576 0.0315112971516 0)
(-0.281598460415 0.0334183511838 0)
(-0.275516823559 0.0353410497952 0)
(-0.269122904242 0.0372823408761 0)
(-0.262411168155 0.0392429963989 0)
(-0.255375897156 0.0412212025865 0)
(-0.248011926536 0.0432122615221 0)
(-0.240315503635 0.0452084651945 0)
(-0.232285222579 0.0471991923126 0)
(-0.223922956735 0.0491712910373 0)
(-0.215234720564 0.0511097492953 0)
(-0.20623143908 0.052998622784 0)
(-0.196929449109 0.054822408273 0)
(-0.187350779074 0.0565674874616 0)
(-0.17752299712 0.0582241131321 0)
(-0.167478840794 0.0597880922791 0)
(-0.157254919184 0.0612635245366 0)
(-0.146891300928 0.0626634319971 0)
(-0.136428717625 0.0640141465463 0)
(-0.125906970558 0.0653548802657 0)
(-0.115363139658 0.0667390769094 0)
(-0.104828863103 0.0682386164876 0)
(-0.0943259093142 0.0699406053675 0)
(-0.0838636099167 0.0719443988491 0)
(-0.0734376856642 0.0743618385186 0)
(-0.0630170525646 0.0773066221672 0)
(-0.0525383881704 0.0808623129714 0)
(-0.0419597655986 0.0849872921901 0)
(-0.030658875426 0.0894812667297 0)
(-0.0195804648255 0.0928802702084 0)
(-0.0064427521686 0.0902180629825 0)
(-0.0198869277279 -0.0725486372091 0)
(-0.0411750582944 -0.0949513609435 0)
(-0.0665147622283 -0.111479328336 0)
(-0.0884373816451 -0.123955645423 0)
(-0.108475000863 -0.131998171688 0)
(-0.126723540083 -0.136042642097 0)
(-0.143464052124 -0.136651683309 0)
(-0.158906757561 -0.134555674549 0)
(-0.17319605701 -0.130432583083 0)
(-0.186455212099 -0.124876935353 0)
(-0.198788143677 -0.118385311744 1.11409650523e-28)
(-0.210283119857 -0.111352280042 -1.09863583128e-28)
(-0.221013124503 -0.10407752395 0)
(-0.231036194729 -0.0967782637476 0)
(-0.240396926271 -0.0896042324456 0)
(-0.249128820601 -0.0826526166239 0)
(-0.25725702977 -0.0759814177215 0)
(-0.264800966094 -0.0696204992161 0)
(-0.271776445738 -0.063580204563 0)
(-0.278197241114 -0.0578577957666 0)
(-0.284076073521 -0.0524421163166 0)
(-0.289425159992 -0.0473168968722 0)
(-0.294256451459 -0.0424630657968 0)
(-0.298581685691 -0.0378603475252 0)
(-0.302412349959 -0.03348835607 0)
(-0.305759619034 -0.0293273293371 0)
(-0.308634310046 -0.0253586052146 0)
(-0.311046865119 -0.02156491275 0)
(-0.313007326161 -0.0179305355592 0)
(-0.314525284374 -0.0144413802685 0)
(-0.315610054274 -0.0110849394094 0)
(-0.316271558284 -0.0078501388198 7.98103478529e-29)
(-0.316520906673 -0.00472724808045 -8.05167979569e-29)
(-0.316365997606 -0.00170833774426 0)
(-0.315802082126 0.00121164234576 0)
(-0.314871078951 0.00403368626689 0)
(-0.313561198896 0.00676304956186 0)
(-0.311886729275 0.009408618499 0)
(-0.309856900617 0.0119773386024 0)
(-0.307481217836 0.0144756718519 0)
(-0.304769074947 0.016909917593 0)
(-0.301729667729 0.0192864675135 0)
(-0.298371833027 0.0216119905533 0)
(-0.294703855724 0.0238935670965 0)
(-0.290733247429 0.0261387681906 0)
(-0.286466503106 0.0283556690603 0)
(-0.281908846185 0.0305527829519 0)
(-0.277063979564 0.0327389009122 0)
(-0.271933867383 0.0349228257336 0)
(-0.266518579383 0.0371129943576 0)
(-0.260816234318 0.0393169928694 0)
(-0.254823081167 0.0415409805072 0)
(-0.24853375534 0.0437890539403 0)
(-0.241941736258 0.0460626038676 0)
(-0.235040018833 0.0483597262142 0)
(-0.227821993884 0.0506747607729 0)
(-0.220282498191 0.0529980529852 0)
(-0.212418995405 0.0553159788089 0)
(-0.204232774756 0.0576113536317 0)
(-0.195730023612 0.0598642562991 0)
(-0.18692295821 0.0620529507982 0)
(-0.177830471066 0.0641558113557 0)
(-0.168478779726 0.0661526888033 0)
(-0.158901156692 0.0680279178905 0)
(-0.149138372942 0.0697713174931 0)
(-0.139235881248 0.0713835391396 0)
(-0.129246050711 0.072873337034 0)
(-0.119222124419 0.0742670963604 0)
(-0.109219207824 0.0756057712438 0)
(-0.0992895036029 0.0769444579358 0)
(-0.0894827777005 0.0783627313229 0)
(-0.0798402260511 0.0799595491177 0)
(-0.0703861629553 0.0818457855878 0)
(-0.0611367381382 0.0841510903671 0)
(-0.0520805040386 0.08701725729 0)
(-0.0431513734011 0.0905752033529 0)
(-0.0344299819742 0.0948364083137 0)
(-0.0249870627693 0.0997113615628 0)
(-0.0165132581647 0.10395062628 0)
(-0.00499803873808 0.102164130741 0)
(-0.0180729387283 -0.100730969194 0)
(-0.0392980806622 -0.120655480798 0)
(-0.0642727303933 -0.134630243063 0)
(-0.0854966520714 -0.144788306934 0)
(-0.104843341606 -0.150789411691 0)
(-0.122242452166 -0.15307616277 0)
(-0.138009197657 -0.152195993777 0)
(-0.152380821238 -0.148822274386 0)
(-0.165557211267 -0.143592178437 0)
(-0.177709071616 -0.137070301964 0)
(-0.18897551285 -0.129726988218 0)
(-0.199466436056 -0.12193307169 0)
(-0.209264949343 -0.113966796882 0)
(-0.218431241094 -0.106027046512 0)
(-0.22700738869 -0.0982489785279 0)
(-0.235022260698 -0.0907191164713 0)
(-0.242495871323 -0.0834883303073 0)
(-0.249442798075 -0.0765821687534 0)
(-0.255874583298 -0.0700086611529 0)
(-0.261801241221 -0.0637640129653 0)
(-0.267232086 -0.057836687979 0)
(-0.272176106317 -0.0522103152673 0)
(-0.276642076262 -0.0468657609205 0)
(-0.280638540161 -0.0417826085771 0)
(-0.28417376013 -0.0369402161342 0)
(-0.287255677455 -0.0323184608599 0)
(-0.289891910896 -0.0278982495653 0)
(-0.292089784084 -0.0236618549871 0)
(-0.293856343515 -0.0195931336269 0)
(-0.295198376325 -0.0156776404276 0)
(-0.296122679302 -0.0119025731015 0)
(-0.296636898068 -0.00825656624212 0)
(-0.296749689827 -0.00472988253858 0)
(-0.296465854105 -0.00131562642098 0)
(-0.295777731042 0.00198985475083 0)
(-0.294733125332 0.00518781618743 0)
(-0.29331264969 0.00828464766321 0)
(-0.291531966414 0.0112883801533 0)
(-0.289399745422 0.0142057090607 0)
(-0.286925724559 0.0170429429881 0)
(-0.284119925342 0.0198063714295 0)
(-0.280992502349 0.0225025464285 0)
(-0.277553525315 0.0251384986553 0)
(-0.27381273488 0.0277219024274 0)
(-0.269779262025 0.0302611839779 9.46231385549e-29)
(-0.265461311247 0.0327655575609 -9.5193102653e-29)
(-0.260865815579 0.035244968115 0)
(-0.255998082054 0.0377099173656 0)
(-0.2508614576 0.0401711529957 0)
(-0.245457056287 0.0426392074453 0)
(-0.239783596728 0.0451237861471 0)
(-0.233837402461 0.0476330222091 0)
(-0.227612622542 0.0501726289546 0)
(-0.221101713329 0.052745021735 0)
(-0.214296200046 0.0553484931663 0)
(-0.207187736777 0.0579765126521 0)
(-0.199769383874 0.0606173456852 0)
(-0.192037094621 0.0632539515295 0)
(-0.18399130639 0.065864349675 0)
(-0.175638070409 0.0684228553783 0)
(-0.166990880579 0.0709004484184 0)
(-0.158071133686 0.0732681198522 0)
(-0.148909822825 0.0754970457347 0)
(-0.139545889175 0.0775644622171 0)
(-0.130030151197 0.079451033935 0)
(-0.120416002575 0.0811538526026 0)
(-0.110772116898 0.082673478976 0)
(-0.10116243352 0.0840351060917 0)
(-0.0916630266685 0.0852816764433 0)
(-0.0823403458128 0.0864668738118 0)
(-0.073262481833 0.0876760389181 0)
(-0.0644978133136 0.0890234472604 0)
(-0.0560826591677 0.0906316360937 0)
(-0.0480533362817 0.0926468716503 0)
(-0.0404221147895 0.0952390215747 0)
(-0.0330968595494 0.0985832910041 0)
(-0.0263359220058 0.102763164728 0)
(-0.0187990931601 0.107747884565 0)
(-0.0131046952271 0.112636028589 0)
(-0.00347312003243 0.1118583273 0)
(-0.0164505491244 -0.127180323521 0)
(-0.037002546705 -0.145266891604 0)
(-0.0610013693759 -0.156940055433 0)
(-0.0811982245526 -0.164821199375 0)
(-0.0996635708004 -0.168746575323 0)
(-0.116156763919 -0.16921785129 0)
(-0.131010877088 -0.166789339512 0)
(-0.144459036612 -0.162104884393 0)
(-0.156721495971 -0.155767370239 0)
(-0.167986470876 -0.148306193354 0)
(-0.178406061024 -0.140156624952 0)
(-0.188097239614 -0.131657089795 0)
(-0.197145531485 -0.123057903672 0)
(-0.205610831867 -0.114535695613 0)
(-0.213533824449 -0.106209237538 0)
(-0.220941869093 -0.0981539091156 0)
(-0.227853731934 -0.0904135829401 0)
(-0.234282976277 -0.0830097495966 0)
(-0.240240152755 -0.0759482499347 0)
(-0.245734070934 -0.069224155996 0)
(-0.250772455127 -0.0628253091421 0)
(-0.255362239028 -0.0567349113831 0)
(-0.259509682212 -0.0509334472661 0)
(-0.26322042367 -0.0454001196584 0)
(-0.266499536024 -0.0401139183771 0)
(-0.269351609943 -0.0350543995301 0)
(-0.271780870928 -0.0302022298315 0)
(-0.273791298631 -0.0255395469994 0)
(-0.275386717194 -0.021050196306 0)
(-0.276570940009 -0.0167198567513 0)
(-0.277348237731 -0.0125359160538 0)
(-0.277724024062 -0.00848702240663 0)
(-0.277703966677 -0.00456328375879 8.99434888218e-29)
(-0.277288686302 -0.000758948441696 -9.12936971886e-29)
(-0.276468783502 0.00292573702315 0)
(-0.275298056318 0.00649280546766 0)
(-0.27375025492 0.00995242777652 0)
(-0.271841755181 0.0133106025477 0)
(-0.269580950962 0.016573012021 0)
(-0.266978014333 0.019745265107 0)
(-0.264043809578 0.022833215672 0)
(-0.260789686818 0.0258432214902 0)
(-0.257227228566 0.0287823753572 0)
(-0.253367972016 0.0316587033476 0)
(-0.249223081142 0.0344813150466 0)
(-0.244802959382 0.037260480885 0)
(-0.240116806137 0.0400076037216 0)
(-0.235172136123 0.0427350481262 0)
(-0.229974296831 0.045455794179 0)
(-0.224526036677 0.0481828899704 0)
(-0.218827190442 0.0509286925655 0)
(-0.21287454932 0.0537039201632 0)
(-0.206662006349 0.0565165320457 0)
(-0.200181047173 0.0593705347269 0)
(-0.193421582892 0.0622648653567 0)
(-0.186373246593 0.0651923094683 0)
(-0.179026937963 0.0681389696032 0)
(-0.171376622719 0.0710840128641 0)
(-0.163421744824 0.0739996431767 0)
(-0.155167672579 0.0768538146706 0)
(-0.146629397978 0.0796081011318 0)
(-0.137830180781 0.0822252890071 0)
(-0.128807276705 0.0846646321201 0)
(-0.119603241564 0.0868961532012 0)
(-0.110284002851 0.0888858848661 0)
(-0.100904461809 0.0906289320997 0)
(-0.0915612448991 0.092112358232 0)
(-0.0823173204234 0.0933575909416 0)
(-0.0732836595691 0.094411006197 0)
(-0.0645401654792 0.0953241822728 0)
(-0.0561669036492 0.0961819687845 0)
(-0.0482758089053 0.0971184073132 0)
(-0.040912602419 0.0982704439474 0)
(-0.0341337815335 0.0997987085473 0)
(-0.0279842394837 0.101904541846 0)
(-0.0223291816904 0.104798805564 0)
(-0.0176297831549 0.1086669579 0)
(-0.0121087094245 0.113476450992 0)
(-0.00933024459294 0.118750998024 0)
(-0.0018532872896 0.119066838937 0)
(-0.014926175096 -0.151773062835 0)
(-0.0344664781319 -0.168464521529 0)
(-0.057187959169 -0.178077545972 0)
(-0.0761941663868 -0.183826148307 0)
(-0.0936683877586 -0.185760306359 0)
(-0.109223330677 -0.184462304404 0)
(-0.123205641396 -0.180511593762 0)
(-0.13582609035 -0.174541222639 0)
(-0.147304291416 -0.167126690615 0)
(-0.157826829911 -0.158762319382 0)
(-0.167544557496 -0.149846017304 0)
(-0.176572539889 -0.140681448529 0)
(-0.184994415753 -0.131489657444 0)
(-0.192868870584 -0.122424704053 0)
(-0.200236322611 -0.1135892617 0)
(-0.207124665632 -0.105047984573 0)
(-0.213553593163 -0.0968379812046 0)
(-0.219537520761 -0.0889766102136 0)
(-0.225087385507 -0.0814671659999 0)
(-0.230211670795 -0.0743030418782 0)
(-0.234916965663 -0.0674708364153 0)
(-0.239208286249 -0.060952722456 0)
(-0.243089302735 -0.0547282800611 0)
(-0.246562549278 -0.0487759163101 0)
(-0.249629650911 -0.0430739497934 0)
(-0.252291577698 -0.037601413463 0)
(-0.254548910715 -0.0323386172904 0)
(-0.256402065371 -0.0272675167436 0)
(-0.25785145474 -0.0223719497923 0)
(-0.258897793976 -0.0176377612546 0)
(-0.259542940023 -0.0130526331487 0)
(-0.259790429771 -0.00860544457282 0)
(-0.259642278038 -0.00428638867141 0)
(-0.259091615307 -9.09284803333e-05 0)
(-0.258149937232 0.00397537620294 0)
(-0.256840945919 0.00791544695022 0)
(-0.255151516865 0.0117426167741 0)
(-0.253095643747 0.0154598643605 0)
(-0.2506823862 0.019071406327 0)
(-0.24792253315 0.0225818117223 0)
(-0.244827840973 0.0259961850465 0)
(-0.241410859859 0.0293203797296 0)
(-0.237684712049 0.0325612465255 0)
(-0.233662824481 0.0357268808764 0)
(-0.229358585245 0.0388268405515 0)
(-0.22478490506 0.0418722968247 0)
(-0.219953679275 0.0448760709134 0)
(-0.214875168219 0.0478524986938 0)
(-0.209557335949 0.0508170725787 0)
(-0.204005210602 0.0537858185497 0)
(-0.198220364482 0.056774368138 0)
(-0.192200584013 0.0597967821535 0)
(-0.185939867656 0.0628640882313 0)
(-0.179428921464 0.0659826306782 0)
(-0.172655965957 0.0691526691766 0)
(-0.16560836056 0.0723666087335 0)
(-0.158274517492 0.0756083244896 0)
(-0.150645649115 0.0788530400522 0)
(-0.14272060339 0.0820654116973 0)
(-0.134502826367 0.0852074246011 0)
(-0.126010227032 0.0882277059513 0)
(-0.117265161918 0.0910814159371 0)
(-0.108316181091 0.0937102875379 0)
(-0.0992009258744 0.0960794084505 0)
(-0.0900154615899 0.0981312684715 0)
(-0.0807933777893 0.0998622823593 0)
(-0.0716926435805 0.101241406666 0)
(-0.0627415891664 0.102282514873 0)