/*--------------------------------*- C++ -*----------------------------------*\
| =========                 |                                                 |
| \\      /  F ield         | OpenFOAM: The Open Source CFD Toolbox           |
|  \\    /   O peration     | Version:  v1806                                 |
|   \\  /    A nd           | Web:      www.OpenFOAM.com                      |
|    \\/     M anipulation  |                                                 |
\*---------------------------------------------------------------------------*/
FoamFile
{
    version     2.0;
    format      ascii;
    class       volVectorField;
    location    "900";
    object      U;
}
// * * * * * * * * * * * * * * * * * * * * * * * * * * * * * * * * * * * * * //

dimensions      [0 1 -1 0 0 0 0];


internalField   nonuniform List<vector> 
6400
(
(0.00598776693131 0.00783483088845 0)
(0.0137645611939 0.00508493191326 0)
(0.0182076252382 0.00423435258905 0)
(0.0173416183932 0.00417726094823 0)
(0.0129507537315 -0.00161729596225 0)
(-0.0146490806893 -0.0140191654129 0)
(-0.0385043513562 -0.0145329481438 0)
(-0.0625436201772 -0.0144325339079 0)
(-0.0869293758524 -0.0141018607753 0)
(-0.111004739368 -0.0136006435185 0)
(-0.134397829315 -0.0129771478517 0)
(-0.156847902881 -0.0122755057165 0)
(-0.178180080271 -0.0115312748595 0)
(-0.198286781347 -0.0107719238638 0)
(-0.217112984202 -0.0100178785861 0)
(-0.234643670063 -0.00928366519627 0)
(-0.250893196302 -0.00857900965691 0)
(-0.265896499032 -0.00790984556641 0)
(-0.27970201696 -0.00727920471417 0)
(-0.292366176641 -0.00668797648137 0)
(-0.303949237656 -0.00613553372011 0)
(-0.314512277401 -0.00562023131613 0)
(-0.324115097189 -0.00513979047363 0)
(-0.332814848875 -0.00469158485209 0)
(-0.340665207381 -0.00427284591955 0)
(-0.347715943387 -0.00388080371709 0)
(-0.354012779917 -0.00351277728587 0)
(-0.359597440134 -0.00316622612438 0)
(-0.364507814014 -0.00283877097343 0)
(-0.368778187455 -0.00252818943351 0)
(-0.372439498842 -0.00223239125947 0)
(-0.375519612971 -0.00194937848037 0)
(-0.378043573065 -0.00167716816104 0)
(-0.380033667107 -0.00141357352004 0)
(-0.38150902144 -0.00115576521449 0)
(-0.382484792439 -0.000900050094693 0)
(-0.382972264437 -0.000642827400094 0)
(-0.38298345194 -0.00038281415482 0)
(-0.382522632106 -0.000122401466443 0)
(-0.381594439714 0.000133952469614 0)
(-0.380213023088 0.000383848101133 0)
(-0.378390749103 0.000627293058871 0)
(-0.376139159031 0.000864982774785 0)
(-0.373468293009 0.00109784089278 0)
(-0.370386539236 0.00132685395444 0)
(-0.366900601834 0.00155301113539 0)
(-0.363015524597 0.00177727661785 0)
(-0.358734751185 0.00200056901518 0)
(-0.354060222958 0.00222373973341 0)
(-0.348992522217 0.00244754721333 0)
(-0.343531069588 0.00267262793417 0)
(-0.337674382037 0.002899465386 0)
(-0.331420393704 0.00312836057683 0)
(-0.324766835457 0.00335940725398 0)
(-0.31771166157 0.00359247695402 0)
(-0.31025350339 0.00382721805588 0)
(-0.3023921212 0.00406307438199 0)
(-0.294128816905 0.00429932737968 0)
(-0.2854667625 0.00453516673032 0)
(-0.276411193212 0.004769792022 0)
(-0.266969410285 0.00500254832828 0)
(-0.257150536928 0.00523309610828 0)
(-0.246964972152 0.00546161586661 0)
(-0.236423490417 0.0056890457687 0)
(-0.225535939454 0.00591735058967 0)
(-0.214309494946 0.00614981825557 0)
(-0.202746444552 0.00639137794014 0)
(-0.190841494317 0.00664892410213 0)
(-0.178578599605 0.00693162531481 0)
(-0.165927329816 0.00725116292311 0)
(-0.152838878658 0.00762177643075 0)
(-0.139242290182 0.00805996365602 0)
(-0.125042524692 0.00858332207507 0)
(-0.110121858846 0.00920691142918 0)
(-0.0943403444287 0.00993497219383 0)
(-0.0775304498892 0.0107494419011 0)
(-0.0595497041448 0.0115981775616 0)
(-0.0406502146339 0.0123226391819 0)
(-0.0223944368397 0.01218697114 0)
(-0.00801419355357 0.0080085077585 0)
(0.00353056708185 0.0173969332515 0)
(0.00915593854025 0.011401783224 0)
(0.00235011878422 -0.000750422950985 0)
(-0.0238969220491 -0.0187230859406 0)
(-0.043464405226 -0.0274514228385 0)
(-0.0658148917617 -0.0331318781631 0)
(-0.0892203099328 -0.0354053449036 0)
(-0.113402689508 -0.0361875766767 0)
(-0.137800047028 -0.0360686492066 0)
(-0.161761664996 -0.0353070914698 0)
(-0.184902679195 -0.0340805926297 0)
(-0.206961234936 -0.0325289467654 0)
(-0.227770860125 -0.0307644784369 0)
(-0.247236653917 -0.0288766355251 0)
(-0.265317852326 -0.026934945301 0)
(-0.282013676669 -0.0249917028699 0)
(-0.297351789338 -0.0230846422792 0)
(-0.311379014234 -0.0212395526501 0)
(-0.324154067528 -0.0194727324344 0)
(-0.335742037643 -0.017793187764 0)
(-0.346210339001 -0.0162045184068 0)
(-0.355625865494 -0.0147064739297 0)
(-0.364053088115 -0.0132961931017 0)
(-0.371552871999 -0.011969159126 0)
(-0.378181824687 -0.0107199126477 0)
(-0.383992023524 -0.00954256652579 0)
(-0.3890310042 -0.00843116321488 0)
(-0.393341920672 -0.00737990897693 0)
(-0.396963807327 -0.00638331272518 0)
(-0.399931889392 -0.00543625238125 0)
(-0.40227790559 -0.0045339915687 0)
(-0.404030460132 -0.00367215567766 0)
(-0.40521546678 -0.00284659900518 0)
(-0.405856578585 -0.00205294618246 0)
(-0.405974825968 -0.00128587209378 0)
(-0.405586532474 -0.000539942703494 0)
(-0.404701090817 0.000185820733802 0)
(-0.403357696662 0.000889144386159 0)
(-0.401582923821 0.00157164413765 0)
(-0.399402161616 0.00223441709926 0)
(-0.39682716784 0.00287809847834 0)
(-0.393867775807 0.00350449056334 0)
(-0.390531608474 0.00411577962086 0)
(-0.386824853848 0.00471429255592 0)
(-0.382752430413 0.00530238984835 0)
(-0.378318024651 0.0058824126895 0)
(-0.373524097032 0.00645664222694 0)
(-0.36837189869 0.00702725318867 0)
(-0.362861519975 0.00759625470676 0)
(-0.356991985243 0.00816541695354 0)
(-0.350761404987 0.00873618573338 0)
(-0.344167192939 0.00930959024957 0)
(-0.337206351392 0.00988615177248 0)
(-0.329875821811 0.0104658033315 0)
(-0.322172890505 0.0110478321866 0)
(-0.314095630641 0.0116308578434 0)
(-0.30564335347 0.0122128582795 0)
(-0.296817033094 0.012791256422 0)
(-0.287619661655 0.0133630773687 0)
(-0.278056485754 0.0139251840345 0)
(-0.268135071881 0.0144745954867 0)
(-0.257865147925 0.0150088888521 0)
(-0.247258170747 0.0155266818135 0)
(-0.236326574723 0.016028190304 0)
(-0.225082663864 0.0165158522504 0)
(-0.213537117502 0.016995007393 0)
(-0.201697093064 0.0174746162108 0)
(-0.189563937424 0.0179679752208 0)
(-0.177130520846 0.0184933816271 0)
(-0.164378184297 0.0190746614488 0)
(-0.151273452686 0.0197412275099 0)
(-0.13776496193 0.0205273529842 0)
(-0.123781353047 0.0214697685042 0)
(-0.109230980014 0.0226003073505 0)
(-0.0940030161845 0.0239289106805 0)
(-0.0779709401054 0.0254171891143 0)
(-0.0610218852262 0.0269423035248 0)
(-0.0432055822732 0.028161122417 0)
(-0.0252765503274 0.0278684090266 0)
(-0.0102082557 0.0222243491976 0)
(-0.00122625792288 0.0172361020291 0)
(-0.0156242735748 -0.00594627874579 0)
(-0.0338949748729 -0.0254519487421 -8.46341672832e-29)
(-0.0546353189771 -0.0389379148075 5.36639982603e-29)
(-0.0758557060794 -0.0488731013637 4.05270951249e-29)
(-0.0976926146259 -0.0557913734472 -3.30575848629e-29)
(-0.119880342871 -0.0592148680132 2.80989798057e-29)
(-0.142295087431 -0.0603495555295 -2.49182929101e-29)
(-0.164471563942 -0.0599449456957 0)
(-0.185973239535 -0.0584455398359 0)
(-0.206505990139 -0.056175263476 0)
(-0.225877021692 -0.0533834108031 0)
(-0.24397766573 -0.0502653353469 0)
(-0.260761840993 -0.0469728846719 0)
(-0.276228798041 -0.0436213681395 0)
(-0.290409085234 -0.0402954119382 0)
(-0.303353496384 -0.0370543557008 0)
(-0.315124634431 -0.0339372589958 0)
(-0.325790708922 -0.030967415833 0)
(-0.335421167989 -0.028156274079 0)
(-0.344083776779 -0.0255067094843 0)
(-0.35184279136 -0.0230156629832 0)
(-0.358757930435 -0.0206761940317 0)
(-0.364883906417 -0.0184790284571 0)
(-0.370270331476 -0.0164136883579 0)
(-0.374961865237 -0.0144692892882 0)
(-0.378998507929 -0.0126350800165 0)
(-0.382415973037 -0.0109007863745 0)
(-0.385246089396 -0.00925680936702 0)
(-0.387517190465 -0.00769432581457 -7.03623511085e-29)
(-0.389254485785 -0.0062053327971 7.03130883628e-29)
(-0.390480483027 -0.00478261775709 0)
(-0.391215691848 -0.00341951746968 0)
(-0.391479293788 -0.00210940405089 0)
(-0.391287399745 -0.000845674637219 0)
(-0.390646799749 0.000375701802452 0)
(-0.389594780224 0.00155029058316 0)
(-0.388137898277 0.00267797705356 0)
(-0.386284632785 0.00376642862208 0)
(-0.384044494646 0.0048219616025 0)
(-0.381426221372 0.00584961183017 0)
(-0.378437861221 0.00685319933282 0)
(-0.375086362468 0.00783625394476 0)
(-0.371377554359 0.00880224059527 0)
(-0.367316124779 0.00975462123218 0)
(-0.362905591213 0.0106968508156 0)
(-0.358148274216 0.0116323363261 0)
(-0.353045289758 0.0125643654121 0)
(-0.347596576441 0.0134960055751 0)
(-0.341800972626 0.014429976599 0)
(-0.335656356752 0.0153685009133 0)
(-0.329159861338 0.016313141331 0)
(-0.322308166581 0.0172646387406 0)
(-0.315097873061 0.0182227671504 0)
(-0.307525944848 0.0191862255378 0)
(-0.299590205007 0.020152588537 0)
(-0.291289856068 0.0211183367609 0)
(-0.282625989151 0.0220789869897 0)
(-0.273602036624 0.0230293392466 0)
(-0.264224116708 0.0239638529899 0)
(-0.254501215557 0.0248771566298 0)
(-0.244445152475 0.0257646897349 0)
(-0.234070278757 0.0266234666455 0)
(-0.223392867502 0.0274529485453 0)
(-0.212430163337 0.0282559991707 0)
(-0.201199071991 0.0290398976168 0)
(-0.189714471226 0.0298173830741 0)
(-0.177987171403 0.0306076425347 0)
(-0.166021585682 0.0314371294816 0)
(-0.153812983747 0.0323402640078 0)
(-0.141344508228 0.0333593081262 0)
(-0.128584465888 0.034542899116 0)
(-0.115483623731 0.0359426809419 0)
(-0.101972258855 0.0376041127552 0)
(-0.0879590553328 0.0395451868117 0)
(-0.0733356279916 0.0417173393375 0)
(-0.0579822102562 0.0439312094101 0)
(-0.0417802730997 0.0456595431868 0)
(-0.024956908942 0.0454030487465 0)
(-0.00984495757708 0.0389408054556 0)
(-0.0109757075632 0.0037965250051 0)
(-0.0321598976834 -0.0260621610736 0)
(-0.0522772567949 -0.0451128504503 0)
(-0.0736584479066 -0.0597936339794 0)
(-0.0948900554552 -0.0703320557056 0)
(-0.115969396059 -0.077312709551 0)
(-0.136748230382 -0.0807809841372 0)
(-0.157114950629 -0.0816181749522 0)
(-0.17681711028 -0.0805417730957 0)
(-0.195634934295 -0.0780887687107 0)
(-0.213414486171 -0.0746813398965 0)
(-0.230064348097 -0.070650620233 0)
(-0.245548016159 -0.0662546935753 0)
(-0.259869648388 -0.0616907033224 0)
(-0.273061032917 -0.0571046906573 0)
(-0.28517075717 -0.0526004583164 0)
(-0.296256029373 -0.0482477730775 0)
(-0.306376937825 -0.0440898134612 0)
(-0.315592715996 -0.0401496883873 0)
(-0.323959525977 -0.0364359152776 0)
(-0.331529312825 -0.0329468456515 0)
(-0.338349364932 -0.029674111294 0)
(-0.344462307932 -0.0266052172371 0)
(-0.349906343234 -0.0237254292685 0)
(-0.354715607647 -0.0210191024009 0)
(-0.358920580673 -0.0184705814926 0)
(-0.362548498983 -0.0160647820933 0)
(-0.365623755394 -0.0137875354675 0)
(-0.368168258185 -0.0116257649713 0)
(-0.370201727821 -0.009567560794 0)
(-0.371741980575 -0.0076021997283 0)
(-0.372805404677 -0.00572002752439 0)
(-0.373407764765 -0.00391198258049 0)
(-0.373564274459 -0.00216913640043 0)
(-0.373285889657 -0.000484286941096 0)
(-0.372572286556 0.00114408571807 0)
(-0.371472297514 0.00271501634918 0)
(-0.369975040893 0.00423400466167 0)
(-0.368094384667 0.00570644165339 0)
(-0.365839203605 0.00713725700306 0)
(-0.363218153685 0.00853138208457 0)
(-0.360239081804 0.00989352464776 0)
(-0.35690888859 0.0112283034262 0)
(-0.353233459835 0.012540335431 0)
(-0.349217600925 0.0138342754477 0)
(-0.344864968277 0.0151148082995 8.47006588734e-29)
(-0.340178006495 0.0163865958783 -8.55053055643e-29)
(-0.335157905886 0.0176541786966 0)
(-0.329804597101 0.0189218321653 0)
(-0.324116800392 0.0201933803054 0)
(-0.318092146429 0.0214719739787 0)
(-0.311727383345 0.0227598460565 0)
(-0.305018680227 0.0240580621841 0)
(-0.297962030213 0.025366291619 0)
(-0.290553746931 0.0266826274116 0)
(-0.282791036816 0.0280034878527 0)
(-0.274672618867 0.0293236305815 0)
(-0.266199354 0.0306363074438 1.25194038226e-28)
(-0.257374835353 0.0319335869615 -1.28416068731e-28)
(-0.248205881684 0.0332068625836 0)
(-0.238702875104 0.0344475499857 0)
(-0.228879882846 0.0356479749277 0)
(-0.218754512706 0.0368024272259 0)
(-0.208347458503 0.0379083652566 0)
(-0.197681705966 0.0389677316244 0)
(-0.186781399988 0.0399883244463 0)
(-0.175670336311 0.0409852239527 0)
(-0.164370074877 0.0419821779001 0)
(-0.152897969325 0.0430125484901 0)
(-0.1412646227 0.0441205749989 0)
(-0.129470838501 0.0453614798495 0)
(-0.117505249869 0.0467994400191 0)
(-0.105341571662 0.0485047366498 0)
(-0.0929334176089 0.0505455361313 0)
(-0.0802094579922 0.0529660140562 0)
(-0.0670734959001 0.0557429554779 0)
(-0.0533885358441 0.0586920755167 0)
(-0.0389107507996 0.0612421505277 0)
(-0.0235785642955 0.0617340158178 0)
(-0.00901772776944 0.0552624546073 0)
(-0.0205654389023 -0.0228406297 0)
(-0.0391912246563 -0.0477058308374 0)
(-0.0615618129314 -0.066568275273 0)
(-0.08353232407 -0.0811076034445 0)
(-0.104607404086 -0.0912879002309 0)
(-0.124823840376 -0.097598069919 0)
(-0.144169242692 -0.100435694875 0)
(-0.162642606938 -0.100544252026 0)
(-0.180167926628 -0.0985934085977 0)
(-0.196685971661 -0.0951492886002 0)
(-0.212164948274 -0.0906808317975 0)
(-0.22660236217 -0.085564043056 0)
(-0.240020445453 -0.0800919234529 0)
(-0.252457816296 -0.0744851340882 0)
(-0.263961803114 -0.0689032583102 0)
(-0.274582477698 -0.0634560440499 0)
(-0.284368753114 -0.0582140225354 0)
(-0.293366249053 -0.0532179924896 0)
(-0.301616431983 -0.048487059895 0)
(-0.309156543729 -0.0440251411704 0)
(-0.316019936884 -0.0398260100681 0)
(-0.322236562121 -0.035877073639 0)
(-0.327833462831 -0.0321621054565 0)
(-0.332835208672 -0.0286631629777 0)
(-0.337264250979 -0.0253618897174 0)
(-0.341141206537 -0.0222403666494 0)
(-0.344485090422 -0.0192816395088 0)
(-0.347313512472 -0.0164700147929 0)
(-0.349642822683 -0.013791196362 0)
(-0.351488204938 -0.0112323301673 0)
(-0.352863827554 -0.00878199567302 -7.56505669903e-29)
(-0.353783466828 -0.0064300300356 7.59464323394e-29)
(-0.354261318229 -0.00416696106475 0)
(-0.354310304969 -0.00198373749389 0)
(-0.353935318856 0.000125628356458 0)
(-0.353156444667 0.00215922465909 0)
(-0.351992124219 0.00412112363531 0)
(-0.350444794417 0.00602167715083 0)
(-0.348526355837 0.00786632430876 0)
(-0.346245706738 0.00966082741297 0)
(-0.343611355663 0.0114107835933 0)
(-0.340631143642 0.01312167458 0)
(-0.337312134043 0.0147989818339 0)
(-0.333660497914 0.0164482757311 0)
(-0.329681396913 0.0180752587122 0)
(-0.325378863712 0.0196857554778 0)
(-0.320755688546 0.0212856458428 0)
(-0.315813326383 0.0228807364533 0)
(-0.310551843281 0.0244765692799 0)
(-0.304969923013 0.0260781688977 0)
(-0.299064955938 0.0276897363857 0)
(-0.292833230777 0.0293143053499 0)
(-0.28627024567 0.0309533842496 0)
(-0.279371146894 0.0326066183209 0)
(-0.272131292376 0.0342715109085 0)
(-0.264546922867 0.03594324872 0)
(-0.256615909054 0.0376146750994 0)
(-0.248338534904 0.0392764463955 0)
(-0.239718263954 0.0409174097473 0)
(-0.230762416649 0.0425252343804 0)
(-0.221482695586 0.0440872834685 0)
(-0.211895483103 0.0455917481835 0)
(-0.20202185987 0.0470289800146 0)
(-0.191887299846 0.0483930143107 0)
(-0.181520992131 0.0496832386363 0)
(-0.170954843653 0.0509060750861 0)
(-0.160222141784 0.0520767054075 0)
(-0.149355539624 0.0532210483465 0)
(-0.138385596303 0.054376313812 0)
(-0.127338384352 0.0555932466015 0)
(-0.116231818711 0.0569369251911 0)
(-0.105073368605 0.0584831585281 0)
(-0.0938585786112 0.0603173595978 0)
(-0.0825650375128 0.0625303740261 0)
(-0.0711425617905 0.0651969084298 0)
(-0.0595122431856 0.0683351777578 0)
(-0.0475394216314 0.0718132752751 0)
(-0.0349019275034 0.0751294352806 0)
(-0.0214422041191 0.0765901516158 0)
(-0.00796085653118 0.0704420613521 0)
(-0.0201223339246 -0.0479206104554 0)
(-0.0407661520644 -0.0718245839776 0)
(-0.0649858997617 -0.0893055761381 0)
(-0.0871844749914 -0.102627341528 0)
(-0.107903455987 -0.111641544458 0)
(-0.127233740222 -0.116786202212 0)
(-0.145283701705 -0.118551762511 0)
(-0.162160754562 -0.117618900001 0)
(-0.177921578887 -0.114631311481 0)
(-0.192621282268 -0.110159400312 0)
(-0.206316445157 -0.10468564807 0)
(-0.219066589594 -0.0985999396273 0)
(-0.230931467641 -0.0922045242307 0)
(-0.241967448514 -0.0857237633343 0)
(-0.252225003326 -0.0793164864381 0)
(-0.261747618437 -0.0730889552862 0)
(-0.270571975629 -0.0671070526659 0)
(-0.278728911316 -0.0614068671727 0)
(-0.286244677614 -0.0560033354796 0)
(-0.293142161852 -0.0508969596976 0)
(-0.299441881188 -0.0460788258781 0)
(-0.305162696669 -0.0415342353614 0)
(-0.310322270616 -0.0372452642825 0)
(-0.314937325693 -0.033192527025 0)
(-0.319023772317 -0.0293563643574 0)
(-0.322596762966 -0.0257176225268 0)
(-0.325670720768 -0.022258144177 0)
(-0.328259365696 -0.01896105768 0)
(-0.330375715923 -0.0158109299581 0)
(-0.33203205042 -0.0127938322304 0)
(-0.33324004384 -0.00989733523956 0)
(-0.334011574251 -0.007110370398 0)
(-0.33435947566 -0.00442291581958 0)
(-0.334294042837 -0.00182611598824 0)
(-0.333814010695 0.000685704106181 0)
(-0.33295652972 0.00311160081761 0)
(-0.331715677885 0.0054556775759 0)
(-0.330104469356 0.00772781829088 0)
(-0.328132699285 0.00993446981094 0)
(-0.325809519427 0.0120819859215 0)
(-0.323143606886 0.0141765528133 0)
(-0.320143130339 0.0162243406353 0)
(-0.316815640947 0.018231636169 0)
(-0.313167927366 0.0202049435042 0)
(-0.309205849778 0.0221510358989 0)
(-0.304934162223 0.0240769474619 0)
(-0.300356335176 0.0259898947143 0)
(-0.295474395261 0.0278971191924 0)
(-0.290288804325 0.0298056451711 0)
(-0.284798404467 0.0317219519941 0)
(-0.279000458044 0.0336515687355 0)
(-0.272890811772 0.0355986089792 0)
(-0.266464210374 0.0375652757755 0)
(-0.259714775517 0.0395513809577 0)
(-0.252636651895 0.0415539320509 0)
(-0.245224804411 0.0435668458323 0)
(-0.237475926182 0.045580854126 0)
(-0.22938941497 0.0475836387036 0)
(-0.220968367764 0.0495602419737 0)
(-0.212220482868 0.0514938375327 0)
(-0.203158817093 0.0533667685955 0)
(-0.193802282961 0.0551619732305 0)
(-0.184175834528 0.0568646150535 0)
(-0.174310320377 0.058463948218 0)
(-0.164241867291 0.0599554092869 0)
(-0.154010905107 0.0613426599606 0)
(-0.143661220029 0.0626393353999 0)
(-0.133236999869 0.0638724855011 0)
(-0.122782463597 0.0650813525964 0)
(-0.1123392817 0.0663213267113 0)
(-0.10194234435 0.0676671483248 0)
(-0.0916156285967 0.0692045990847 0)
(-0.0813726707664 0.0710307267419 0)
(-0.0712142392054 0.0732587989427 0)
(-0.0611078887192 0.075994274894 0)
(-0.0509950234389 0.0793021990909 0)
(-0.040766032045 0.0831232172831 0)
(-0.0300445987242 0.0870845257769 0)
(-0.0187485414862 0.0895871364808 0)
(-0.00676039082236 0.0840043152964 0)
(-0.0187516513944 -0.0754962050068 0)
(-0.0401076712607 -0.0971236357136 0)
(-0.0649573652782 -0.112492628851 0)
(-0.0868508252776 -0.123974761786 0)
(-0.106989716739 -0.131315706973 0)
(-0.125412941095 -0.134938798641 0)
(-0.142316206768 -0.13535019147 0)
(-0.157876821291 -0.13319208009 0)
(-0.17223795907 -0.129085552313 0)
(-0.185528581801 -0.123589267155 0)
(-0.1978611051 -0.117176815105 1.14911717911e-28)
(-0.209331786521 -0.110229083942 -1.13284663791e-28)
(-0.220020045955 -0.103038001455 0)
(-0.229988852867 -0.0958168336618 0)
(-0.239286473176 -0.088713685844 0)
(-0.247949145355 -0.0818254820998 0)
(-0.256004093829 -0.0752107063399 0)
(-0.263472337131 -0.0689000594855 0)
(-0.270370966887 -0.06290484029 0)
(-0.276714789669 -0.0572232468794 0)
(-0.282517378149 -0.0518449668145 0)
(-0.287791656577 -0.046754449875 0)
(-0.292550165122 -0.0419332096244 0)
(-0.296805130904 -0.0373614264679 0)
(-0.300568443866 -0.0330190530108 0)
(-0.303851604771 -0.0288865631455 0)
(-0.306665687317 -0.02494544342 0)
(-0.309021325039 -0.0211785000079 0)
(-0.310928690332 -0.0175700398414 0)
(-0.312397454396 -0.0141059529092 0)
(-0.313436969717 -0.0107736707618 0)
(-0.31405714279 -0.00756201235633 8.3577846729e-29)
(-0.314268970167 -0.00446119914816 -8.43274410061e-29)
(-0.314080060996 -0.00146346937202 0)
(-0.313485159979 0.00143619898383 0)
(-0.312527936785 0.00423944159988 0)
(-0.311195084004 0.0069521293927 0)
(-0.309501039748 0.00958311602565 0)
(-0.307454603686 0.0121395386187 0)
(-0.305064934447 0.0146280546962 0)
(-0.302341069262 0.0170551621313 0)
(-0.299291824413 0.0194274507778 0)
(-0.295925623817 0.0217517851524 0)
(-0.292250298881 0.0240354334675 0)
(-0.288272861416 0.0262861379281 0)
(-0.283999255734 0.0285121148851 0)
(-0.279434101261 0.0307219702658 0)
(-0.274580444372 0.032924515411 0)
(-0.269439546279 0.0351284713611 0)
(-0.264010741063 0.0373420563923 0)
(-0.25829140264 0.0395724626717 0)
(-0.252277061168 0.0418252414662 0)
(-0.245961708304 0.0441036314706 0)
(-0.239338317802 0.0464078892237 0)
(-0.232399587987 0.0487346943199 0)
(-0.225138897225 0.0510766985989 0)
(-0.217551411146 0.0534223298558 0)
(-0.209635285679 0.0557558822712 0)
(-0.201392968841 0.0580578959617 0)
(-0.192832362433 0.0603061310119 0)
(-0.183967878574 0.0624767121802 0)
(-0.174821167511 0.0645459439327 0)
(-0.165421470046 0.0664922633162 0)
(-0.155805676088 0.068298456289 0)
(-0.146017791159 0.0699542673677 0)
(-0.136107550162 0.0714591295479 0)
(-0.126131053951 0.0728227840836 0)
(-0.116144420109 0.0740728256414 0)
(-0.106207326509 0.0752485975639 0)
(-0.0963765684166 0.0764070989201 0)
(-0.0867064882801 0.0776341904299 0)
(-0.0772385747123 0.0790270167884 0)
(-0.0679980639336 0.0806899310848 0)
(-0.0590110908689 0.0827596642649 0)
(-0.0502568374117 0.0853722431014 0)
(-0.0416966748775 0.0886398127899 0)
(-0.0332614629016 0.0925804987633 0)
(-0.0245170866732 0.0969670513684 0)
(-0.0156076705167 0.100441394127 0)
(-0.00545210160723 0.0956042218811 0)
(-0.0173347292757 -0.102811849145 0)
(-0.0384975041015 -0.122265957083 0)
(-0.0629876058872 -0.13538543645 0)
(-0.0841128104604 -0.144769105792 0)
(-0.103462787462 -0.150192387742 0)
(-0.120946850693 -0.15210285139 0)
(-0.136813037845 -0.151015053896 0)
(-0.151269714402 -0.147548219077 0)
(-0.164506672011 -0.142299832966 0)
(-0.176692253109 -0.135805460859 0)
(-0.187967659365 -0.128514913751 0)
(-0.198446381299 -0.120785471032 0)
(-0.208215349334 -0.11288691592 0)
(-0.217338302701 -0.105013281811 0)
(-0.225860413409 -0.0972972873177 0)
(-0.233813181503 -0.0898245395432 0)
(-0.24121883525 -0.0826458881806 0)
(-0.248093809939 -0.0757873373165 0)
(-0.254451207127 -0.0692575788792 0)
(-0.260302350974 -0.0630535260746 0)
(-0.2656576564 -0.0571643044944 0)
(-0.270527035714 -0.0515741132989 0)
(-0.274920034855 -0.0462642789073 0)
(-0.278845838245 -0.041214733723 0)
(-0.282313232644 -0.0364050800266 0)
(-0.285330582236 -0.031815346567 0)
(-0.287905837409 -0.0274265112492 0)
(-0.290046567169 -0.02322085028 0)
(-0.291759983014 -0.019182172372 0)
(-0.293052980637 -0.0152959514341 0)
(-0.293932441118 -0.0115492615607 0)
(-0.294406014885 -0.00793050278138 0)
(-0.294482115905 -0.00442961748992 0)
(-0.294165128239 -0.00103975580774 0)
(-0.293447233872 0.00224209445134 0)
(-0.292377951001 0.00541746854052 0)
(-0.290936354225 0.00849399448409 0)
(-0.28913814358 0.0114798582223 0)
(-0.286991611734 0.014381942632 0)
(-0.284506181152 0.0172067525044 0)
(-0.281691551273 0.0199607917693 0)
(-0.278557532781 0.0226508390963 0)
(-0.275113817834 0.0252841585566 0)
(-0.271369726086 0.0278686579689 0)
(-0.26733391465 0.0304129873529 9.87841833457e-29)
(-0.263014052214 0.0329265602829 -9.9381406577e-29)
(-0.258416466308 0.0354194755787 0)
(-0.25354578403 0.0379023151861 0)
(-0.248404598577 0.0403857970706 0)
(-0.242993205999 0.0428802697471 0)
(-0.237309464598 0.0453950498699 0)
(-0.231348831836 0.0479376246635 0)
(-0.225104640127 0.0505127536326 0)
(-0.218568657687 0.0531215467626 0)
(-0.211731935228 0.055760635422 0)
(-0.204585958665 0.0584214803881 0)
(-0.197124009538 0.0610900273173 0)
(-0.189342580218 0.0637467784314 0)
(-0.181243134885 0.066366940669 0)
(-0.172833515887 0.0689218490136 0)
(-0.164129418319 0.0713799979663 0)
(-0.155155371625 0.0737094854497 0)
(-0.145945247709 0.0758803143691 0)
(-0.136542524376 0.0778669328018 0)
(-0.127000269584 0.0796512779188 0)
(-0.117377522661 0.0812274837226 0)
(-0.10774606605 0.0825978088929 0)
(-0.0981720858529 0.0837904888736 0)
(-0.0887373218947 0.0848443109299 0)
(-0.0795087851499 0.0858125085462 0)
(-0.0705640499879 0.0867927818677 0)
(-0.0619725349209 0.0879008594825 0)
(-0.0537594040064 0.0892423832074 0)
(-0.0459844709938 0.0909787191667 0)
(-0.0386318298521 0.0932770949428 0)
(-0.0316825287594 0.0962936071437 0)
(-0.0251133123287 0.100122215289 0)
(-0.0184152015918 0.104658934173 0)
(-0.0120691154781 0.10892319993 0)
(-0.00404541048818 0.104961162393 0)
(-0.0159218768963 -0.128682458144 0)
(-0.0363604630587 -0.146430422552 0)
(-0.059923431929 -0.157432193316 0)
(-0.0799958274785 -0.164702630292 0)
(-0.0984077603973 -0.16815781817 0)
(-0.114925505609 -0.168305759251 0)
(-0.129829557865 -0.165681085756 0)
(-0.143330190242 -0.160893622406 0)
(-0.155634794306 -0.154518699721 0)
(-0.166925473186 -0.147063291003 0)
(-0.177352623129 -0.138945624512 0)
(-0.187033823169 -0.130492095407 0)
(-0.196056383265 -0.121945070618 0)
(-0.204482486303 -0.1134763342 0)
(-0.212355217471 -0.105201999744 0)
(-0.219704250333 -0.0971962314094 0)
(-0.226550476778 -0.0895025709903 0)
(-0.232909358423 -0.0821426723809 0)
(-0.238793109946 -0.0751227761136 0)
(-0.244211980639 -0.0684384297657 0)
(-0.249174927577 -0.0620779325778 0)
(-0.253689930055 -0.0560248773601 0)
(-0.257764125687 -0.0502600506971 0)
(-0.261403882132 -0.0447628637652 0)
(-0.264614868122 -0.0395124256654 0)
(-0.267402153832 -0.0344883324609 0)
(-0.269770340913 -0.029671222605 0)
(-0.271723686614 -0.0250431482488 0)
(-0.273266197429 -0.0205878254904 0)
(-0.274401813289 -0.0162907777058 0)
(-0.27513497993 -0.0121392028023 0)
(-0.275471284193 -0.00812142176175 0)
(-0.275415961842 -0.00422703341898 9.44344750794e-29)
(-0.274968299667 -0.000450447536901 -9.58669261284e-29)
(-0.274119028232 0.00320573645713 0)
(-0.27292456943 0.00674477448083 0)
(-0.271357196042 0.0101800894304 0)
(-0.269432770033 0.0135169014225 0)
(-0.267159359099 0.016760907367 0)
(-0.264546872893 0.0199178746592 0)
(-0.261605912038 0.02299388214 0)
(-0.258347538523 0.0259955430163 0)
(-0.254783012532 0.0289302235241 0)
(-0.250923504242 0.0318062338909 0)
(-0.246779753066 0.0346329693302 0)
(-0.242361665809 0.0374209723635 0)
(-0.237677858638 0.040181881618 0)
(-0.232735163623 0.0429282288088 0)
(-0.227538138377 0.0456730489844 0)
(-0.222088636157 0.0484292775388 0)
(-0.216385510198 0.0512089238566 0)
(-0.210424521888 0.0540220529244 0)
(-0.20419854608 0.056875598382 0)
(-0.197698175245 0.0597720874668 0)
(-0.190912664329 0.0627085346142 0)
(-0.183831321003 0.0656753942738 0)
(-0.176445254788 0.0686559557008 0)
(-0.16874879466 0.0716266517709 0)
(-0.160742095299 0.074556308652 0)
(-0.152432571738 0.0774088237741 0)
(-0.143837111953 0.0801433945298 0)
(-0.134983167014 0.0827181336622 0)
(-0.125909590074 0.0850927105215 0)
(-0.116666523367 0.0872311915287 0)
(-0.107318085467 0.0891046558861 0)
(-0.0979298768623 0.0907016878737 0)
(-0.088597700896 0.092011830969 0)
(-0.079386314488 0.0930630607724 0)
(-0.0704203881541 0.0938967928042 0)
(-0.0617640452849 0.0945570371316 0)
(-0.0535158622237 0.0951461553254 0)
(-0.0458011510133 0.095812994743 0)
(-0.0386240618991 0.0966584466143 0)
(-0.0320924277757 0.0978672231115 0)
(-0.0261909314036 0.0996410296636 0)
(-0.0209252439797 0.102179061211 0)
(-0.0163103170583 0.105653655088 0)
(-0.0117613656577 0.110041300702 0)
(-0.00812792055964 0.114823475828 0)
(-0.00252573643039 0.111814501479 0)
(-0.014529306523 -0.152845182655 0)
(-0.0339395497242 -0.169263415616 0)
(-0.056276030066 -0.178326582133 0)
(-0.0751491807948 -0.183584240862 0)
(-0.0925378686556 -0.185134811394 0)
(-0.108077822895 -0.183563875411 0)
(-0.122073199475 -0.179437487232 0)
(-0.13471771277 -0.173365994969 0)
(-0.146218115187 -0.165905330797 0)
(-0.156753636671 -0.157532757933 0)
(-0.166471521299 -0.148632614021 0)
(-0.175485675496 -0.139498586408 0)
(-0.183880133463 -0.130344902598 0)
(-0.191714875985 -0.121321318509 0)
(-0.199032070311 -0.11252803087 0)
(-0.20586152584 -0.104028451782 0)
(-0.212224841166 -0.0958592206293 0)
(-0.218138226009 -0.0880376687345 0)
(-0.223614249718 -0.0805672823472 0)
(-0.228662845744 -0.0734417247751 0)
(-0.233291868588 -0.066647859325 0)
(-0.23750742335 -0.0601680735282 0)
(-0.241314105293 -0.0539820919158 0)
(-0.244715224899 -0.0480683905548 0)
(-0.2477130502 -0.042405284689 0)
(-0.250309076795 -0.0369717394143 0)
(-0.252504307305 -0.0317479423994 0)
(-0.254299476054 -0.0267156835546 0)
(-0.255695222626 -0.0218586006183 0)
(-0.256692428968 -0.0171623072042 0)
(-0.257293232529 -0.0126142379781 0)
(-0.257501534186 -0.00820304772208 0)
(-0.257318570294 -0.00391876482923 0)
(-0.256733960097 0.000243337632207 0)
(-0.255783979154 0.00427703993462 0)
(-0.254452138402 0.00818720914211 0)
(-0.252745521244 0.0119870348208 0)
(-0.250674980778 0.0156797017935 0)
(-0.248250150421 0.0192696892202 0)
(-0.245481749639 0.0227618357488 0)
(-0.242381369504 0.0261615253282 0)
(-0.238961343327 0.0294749060741 0)
(-0.23523454125 0.0327091432189 0)
(-0.231214097408 0.0358726680671 0)
(-0.226913050858 0.0389753915242 0)
(-0.222343886475 0.0420288424901 0)
(-0.217517973812 0.0450461811411 0)
(-0.212444923491 0.0480420287537 0)
(-0.207131904639 0.0510320582139 0)
(-0.20158299182 0.054032303051 0)
(-0.19579865376 0.0570581392063 0)
(-0.189775462843 0.0601230044188 0)
(-0.183506138303 0.0632368653535 0)
(-0.176980222827 0.0664043912725 0)
(-0.170185098442 0.0696235815583 0)
(-0.163107590845 0.072884236568 0)
(-0.155736603092 0.0761666776234 0)
(-0.148063661627 0.0794434115507 0)
(-0.14008751374 0.08267539432 0)
(-0.131814567021 0.0858182867911 0)
(-0.123263063862 0.0888200068155 0)
(-0.114463081423 0.0916266564262 0)
(-0.105459140358 0.094185373338 0)
(-0.0963067436756 0.0964478133089 0)
(-0.0870858161818 0.098369851441 0)
(-0.0778581507611 0.0999352448852 0)
(-0.0687671229762 0.101117019956 0)
(-0.0598394095398 0.101936837646 0)