/*--------------------------------*- C++ -*----------------------------------*\
| =========                 |                                                 |
| \\      /  F ield         | OpenFOAM: The Open Source CFD Toolbox           |
|  \\    /   O peration     | Version:  v1806                                 |
|   \\  /    A nd           | Web:      www.OpenFOAM.com                      |
|    \\/     M anipulation  |                                                 |
\*---------------------------------------------------------------------------*/
FoamFile
{
    version     2.0;
    format      ascii;
    class       volVectorField;
    location    "900";
    object      Ua;
}
// * * * * * * * * * * * * * * * * * * * * * * * * * * * * * * * * * * * * * //

dimensions      [0 1 -1 0 0 0 0];


internalField   nonuniform List<vector> 
6400
(
(-0.753452242743 1.41745847504 0)
(-5.06039230783 5.80318723574 0)
(-8.40118287171 8.77060797613 0)
(-10.7053807497 6.68661557544 0)
(-12.0484537759 4.40099916407 0)
(-12.3158677412 -4.12301877108 0)
(-14.0889823034 -8.08119012257 0)
(-15.1951384908 -11.8078847839 0)
(-16.0003994092 -15.6737069887 0)
(-16.6632709094 -19.6433715501 0)
(-17.2242174009 -23.7079446419 0)
(-17.696097193 -27.8489989783 0)
(-18.0910697825 -32.0465521149 0)
(-18.4216060497 -36.2841081432 0)
(-18.6982627883 -40.5486920274 0)
(-18.9294156403 -44.829802022 0)
(-19.1218594408 -49.1188694289 0)
(-19.2812580095 -53.4090909017 0)
(-19.4123443879 -57.6953190008 0)
(-19.519036738 -61.9739292631 0)
(-19.6045536631 -66.2426849418 0)
(-19.6715316573 -70.5006209403 0)
(-19.7221312724 -74.7479480647 0)
(-19.758127283 -78.9859747142 0)
(-19.7809843039 -83.2170443304 0)
(-19.7919201723 -87.444489329 0)
(-19.7919598573 -91.6726024906 0)
(-19.781979198 -95.9066296139 0)
(-19.7627493988 -100.152781836 0)
(-19.7349633875 -104.418294069 0)
(-19.6993357239 -108.711515218 0)
(-19.6566022924 -113.042263016 0)
(-19.6081229809 -117.422270116 0)
(-19.5548931288 -121.866605807 0)
(-19.4983231353 -126.389297571 0)
(-19.4201823222 -130.985515508 0)
(-19.2931344559 -135.561758041 0)
(-19.115791411 -139.909214781 0)
(-18.9064654366 -143.787872474 0)
(-18.6790395273 -147.161352202 0)
(-18.4421776844 -150.009506303 0)
(-18.1998075017 -152.319742659 0)
(-17.9537649532 -154.084047841 0)
(-17.7053853738 -155.298274339 0)
(-17.4558954522 -155.96189395 0)
(-17.2063999388 -156.077739529 0)
(-16.9578885358 -155.651792828 0)
(-16.7112959175 -154.693076639 0)
(-16.4675579912 -153.213632807 0)
(-16.2276464044 -151.228550139 0)
(-15.9925905534 -148.756027069 0)
(-15.7634955038 -145.817462652 0)
(-15.5415564037 -142.43757005 0)
(-15.3280658564 -138.644496379 0)
(-15.1244101251 -134.469925856 0)
(-14.9320501176 -129.949132307 0)
(-14.7524838007 -125.120941732 0)
(-14.5871874315 -120.02755895 0)
(-14.4375348666 -114.714214111 0)
(-14.3046961752 -109.228588169 0)
(-14.1895193556 -103.619989791 0)
(-14.0924015149 -97.9382712211 0)
(-14.0131565911 -92.2324931313 0)
(-13.950890472 -86.5493706859 0)
(-13.9038849067 -80.9315505241 0)
(-13.8695112642 -75.4157953597 0)
(-13.8441329199 -70.031124442 0)
(-13.8231018445 -64.7970565611 0)
(-13.8005618977 -59.7218409167 0)
(-13.7697783458 -54.8012476398 0)
(-13.7221246018 -50.0166883195 0)
(-13.6495996483 -45.3363521287 0)
(-13.5384070365 -40.7104449972 0)
(-13.386446504 -36.0864030446 0)
(-13.1590492716 -31.3769721643 0)
(-12.9051274059 -26.5600296494 0)
(-12.4226995342 -21.3861021656 0)
(-12.0645843645 -16.066630755 0)
(-9.76375585116 -8.56666787092 0)
(-7.8278608692 -1.21309445242 0)
(-2.74523784406 -3.07966291511 0)
(-2.4553906824 -5.39163005918 0)
(-4.87838136374 -9.40645267022 0)
(-7.08204336396 -7.65655126555 0)
(-9.77491828066 -5.16779123773 0)
(-12.2552835877 -2.15121683836 0)
(-14.230803865 0.514052903529 0)
(-16.0097295819 2.94434650747 0)
(-17.6985247857 5.33573798632 0)
(-19.3039386491 7.76115846267 0)
(-20.8139267608 10.2442815704 0)
(-22.2202816468 12.7943883514 0)
(-23.521420084 15.415066551 0)
(-24.7201927499 18.1061166727 0)
(-25.8215401366 20.8651197672 0)
(-26.8312207363 23.6887186477 0)
(-27.7552736711 26.5733153574 0)
(-28.599734531 29.5153908752 0)
(-29.3704254577 32.5116921478 0)
(-30.0728100205 35.5593796572 0)
(-30.7119187446 38.6561521139 0)
(-31.2923273161 41.8003465677 0)
(-31.8181648693 44.9910206634 0)
(-32.2931365601 48.2280200857 0)
(-32.7205526146 51.512037673 0)
(-33.1033606027 54.844665304 0)
(-33.4441761968 58.2284453877 0)
(-33.745319003 61.6669210584 0)
(-34.0088308714 65.1647011912 0)
(-34.2365402952 68.727512189 0)
(-34.4299821309 72.3623299139 0)
(-34.590680503 76.0773120113 0)
(-34.7194024037 79.8822621824 0)
(-34.8196513253 83.787036927 0)
(-34.897512201 87.8037139319 0)
(-34.9983827734 91.9309960938 0)
(-35.1259826488 95.8843157179 0)
(-35.242262913 99.4982574568 0)
(-35.3101186612 102.614731773 0)
(-35.3208369372 105.234668776 0)
(-35.2740847372 107.35734419 0)
(-35.1693442648 108.983143941 0)
(-35.0050546254 110.115157006 0)
(-34.7793809684 110.759323282 0)
(-34.4905323781 110.924311472 0)
(-34.1367379265 110.62148519 0)
(-33.7162048366 109.86489684 0)
(-33.2271431053 108.671251627 0)
(-32.6678243617 107.059850349 0)
(-32.0366479989 105.052540299 0)
(-31.3322125391 102.673684374 0)
(-30.5533998209 99.9501471973 0)
(-29.6994777634 96.9112819906 0)
(-28.7702247735 93.5888985028 0)
(-27.7660766067 90.0171800109 0)
(-26.6882940054 86.2325169123 0)
(-25.5391457732 82.2732179399 0)
(-24.3220970691 78.1790687641 0)
(-23.0419878749 73.9907125042 0)
(-21.7051820929 69.7488463198 0)
(-20.3196651713 65.4932418865 0)
(-18.8950681878 61.2616223217 0)
(-17.4425988104 57.0884426182 0)
(-15.9748692218 53.0036393794 0)
(-14.5056133664 49.0314220788 0)
(-13.0493192818 45.1891797997 0)
(-11.6207567696 41.4865788407 0)
(-10.2345403873 37.9249007213 0)
(-8.904462575 34.4967681769 0)
(-7.64342582505 31.1861634733 0)
(-6.46182955509 27.9694855095 0)
(-5.37027133454 24.8162326997 0)
(-4.37064271226 21.6946681022 0)
(-3.47949932801 18.5688122672 0)
(-2.66184858921 15.4347124292 0)
(-2.02089819831 12.2619868865 0)
(-1.25136096489 9.28102798306 0)
(-1.35240403002 6.3398681386 0)
(1.36672817774 6.62783016883 0)
(-3.73000906649 7.65770313583 0)
(-6.84077316406 -7.2922451524 0)
(-5.6301263131 -9.38519040227 0)
(-6.94276035152 -5.74024214016 -2.2598482454e-28)
(-6.79851159343 -4.09253397232 1.42637897232e-28)
(-7.13246163388 -3.17590583956 1.46053836869e-28)
(-7.87306956104 -3.08473804968 -1.19636471317e-28)
(-8.8427925797 -3.37483918422 1.75975607848e-28)
(-9.94437980405 -3.78343938099 -1.56550544431e-28)
(-11.0761834094 -4.2366130653 0)
(-12.1625819102 -4.73694113814 0)
(-13.1652757821 -5.30256158395 0)
(-14.0702906747 -5.94817087654 0)
(-14.8753784432 -6.68364110642 0)
(-15.5840123346 -7.51557704666 0)
(-16.2025539713 -8.44803880278 0)
(-16.7385285264 -9.4828987933 0)
(-17.1995937903 -10.6203081963 0)
(-17.5930216243 -11.8592304126 0)
(-17.925468778 -13.1979109417 0)
(-18.2028881166 -14.6342462035 0)
(-18.4305151534 -16.1660719801 0)
(-18.6129001096 -17.7913963361 0)
(-18.7539645723 -19.508591289 0)
(-18.8570680638 -21.3165525996 0)
(-18.9250759168 -23.2148351759 0)
(-18.9604251722 -25.2037709555 0)
(-18.9651849179 -27.2845795179 0)
(-18.9411157896 -29.4594674493 0)
(-18.8897104057 -31.7317584516 0)
(-18.8122668445 -34.1059629822 -2.92510159831e-27)
(-18.7098330114 -36.5880916335 2.92277924875e-27)
(-18.5834522327 -39.1853889149 0)
(-18.4330664692 -41.9079121655 0)
(-18.2576994336 -44.7650998581 0)
(-18.0422526663 -47.7770144903 0)
(-17.7686217134 -50.8232282644 0)
(-17.4881563854 -53.4976679112 0)
(-17.2357684178 -55.7583643631 0)
(-17.0191693149 -57.6073321746 0)
(-16.833356405 -59.0415387295 0)
(-16.6754040075 -60.0637293006 0)
(-16.5453987679 -60.6824119996 0)
(-16.444157613 -60.9099826901 0)
(-16.3723374551 -60.7619929871 0)
(-16.3303428601 -60.2569171742 0)
(-16.3182582024 -59.4158579571 0)
(-16.3356978874 -58.2621600215 0)
(-16.3816578129 -56.8210333442 0)
(-16.4543981673 -55.1192307096 0)
(-16.5513450132 -53.1847784901 0)
(-16.6689998938 -51.0467488602 0)
(-16.8028575865 -48.7350602023 0)
(-16.9473375324 -46.2802864125 0)
(-17.095735943 -43.7134487658 0)
(-17.2402075441 -41.0657595612 0)
(-17.3717884113 -38.3682878848 0)
(-17.4804734622 -35.6515245737 0)
(-17.5553627271 -32.9448362243 0)
(-17.5848884884 -30.2758152932 0)
(-17.5571305016 -27.6695530577 0)
(-17.4602177299 -25.1478798062 0)
(-17.2828046277 -22.7286314547 0)
(-17.0145953615 -20.4250089103 0)
(-16.6468816793 -18.2450968844 0)
(-16.1730399113 -16.1915994987 0)
(-15.588960022 -14.2618456575 0)
(-14.8933031858 -12.4480831339 0)
(-14.0877118757 -10.738136846 0)
(-13.1765389717 -9.11638708621 0)
(-12.1672178105 -7.56545391986 0)
(-11.0682013953 -6.06787597761 0)
(-9.89284137471 -4.61055961744 0)
(-8.64591664657 -3.18521786307 0)
(-7.35728465888 -1.80542955583 0)
(-5.98123042438 -0.480029516702 0)
(-4.6883714194 0.687739795549 0)
(-3.01872499548 1.83348283894 0)
(-2.63607674176 2.51152091161 0)
(2.44771808724 6.05414678635 0)
(-5.36527141928 8.11304476775 0)
(-6.61627007669 -11.8486656939 0)
(-8.68343691043 -4.48199772904 0)
(-6.01359221881 -3.2121182246 0)
(-4.80864798513 -4.25324095152 0)
(-5.66283216321 -4.82299636072 0)
(-7.04205130846 -4.99677318414 0)
(-8.47187757933 -4.93089297556 0)
(-9.88039803158 -4.66039577792 0)
(-11.2087091823 -4.23633887453 0)
(-12.4191864676 -3.71705807671 0)
(-13.5086769886 -3.14294221678 0)
(-14.4891770236 -2.53565881946 0)
(-15.3744607602 -1.90504339102 0)
(-16.1770013577 -1.25408302632 0)
(-16.9078449817 -0.581697797645 0)
(-17.5764763344 0.1155414692 0)
(-18.1907239516 0.842249265809 0)
(-18.7569056692 1.6034634766 0)
(-19.2800976631 2.40419676039 0)
(-19.7643941626 3.24921235848 0)
(-20.2131191012 4.14294710652 0)
(-20.6289964248 5.08952628507 0)
(-21.0142886771 6.09283462759 0)
(-21.3709081112 7.15662137901 0)
(-21.7005049378 8.28462559912 0)
(-22.0045342169 9.48071287899 0)
(-22.2843130444 10.7490202849 0)
(-22.541047838 12.0941046135 0)
(-22.7758984255 13.5211041627 0)
(-22.9898842716 15.035892834 0)
(-23.1841743129 16.6452904961 0)
(-23.3591833227 18.3571890924 0)
(-23.517145593 20.1810450099 0)
(-23.6561327721 22.1280517668 0)
(-23.7934100746 24.2142152312 0)
(-23.9046585188 26.1794912172 0)
(-23.9520002665 27.841281048 0)
(-23.937710314 29.1920577765 0)
(-23.8704733159 30.2224801983 0)
(-23.7505591306 30.9337832091 0)
(-23.5763973461 31.335845028 0)
(-23.3485214826 31.4440273801 0)
(-23.0688042862 31.2779331334 0)
(-22.7394687802 30.8606439346 0)
(-22.3629937244 30.2178103128 0)
(-21.9423037977 29.3767391971 5.61730817295e-27)
(-21.4808742322 28.3656068685 -5.6700486999e-27)
(-20.9827538495 27.2127948785 0)
(-20.4525670586 25.9463244143 0)
(-19.8955045268 24.5933826458 0)
(-19.3172881762 23.1799387199 0)
(-18.72409947 21.7304385978 0)
(-18.122464979 20.2675601381 0)
(-17.5190940981 18.8120063756 0)
(-16.9206637506 17.3823169936 0)
(-16.3335471543 15.9946832756 0)
(-15.7634889263 14.6627618551 0)
(-15.2152365474 13.3974940131 3.67039566482e-27)
(-14.692148096 12.2069506026 -3.76314981619e-27)
(-14.1958066885 11.0962325057 0)
(-13.725681376 10.0674619126 0)
(-13.278880289 9.11989701646 0)
(-12.8500393291 8.25019727599 0)
(-12.4313870128 7.45284874519 0)
(-12.0129956114 6.72075122907 0)
(-11.5832471514 6.04594312354 0)
(-11.129415575 5.42046498526 0)
(-10.6385357132 4.8372772191 0)
(-10.0979465235 4.29139907543 0)
(-9.49699972801 3.7808731808 0)
(-8.82570946716 3.3086293205 0)
(-8.08180903826 2.88232197293 0)
(-7.25411506268 2.52033383655 0)
(-6.37172577607 2.23939191101 0)
(-5.36393459523 2.09272831452 0)
(-4.47091287792 2.05194822406 0)
(-3.0286568143 2.36800690413 0)
(-3.36648036448 2.54947221596 0)
(2.99677861657 6.18985412196 0)
(-7.32839974363 7.69613539118 0)
(14.193475569 -22.3517112205 0)
(-4.90045716549 -4.24184422058 0)
(-2.49639857902 -4.28178172752 0)
(-2.99943406518 -5.8975334997 0)
(-5.38066617518 -6.38301994476 0)
(-7.32503433908 -6.39970377253 0)
(-8.82308590593 -6.19813228157 0)
(-10.1085330005 -5.83955554586 0)
(-11.2237408445 -5.40192072982 0)
(-12.1812797934 -4.9532363225 0)
(-13.0116400838 -4.53284764718 0)
(-13.7447178422 -4.15979077841 0)
(-14.4010367363 -3.8423917491 0)
(-14.9939819016 -3.58338015779 0)
(-15.5327788717 -3.38260511496 0)
(-16.0238946389 -3.2386651814 0)
(-16.4717634377 -3.14984278139 0)
(-16.8793894854 -3.11457964137 0)
(-17.248846909 -3.13169125647 0)
(-17.5816287953 -3.20044667211 0)
(-17.8788659624 -3.32058223232 0)
(-18.1414613179 -3.49228895613 0)
(-18.3701730535 -3.71619610716 0)
(-18.5656654167 -3.99336391811 0)
(-18.7285374426 -4.32529057116 0)
(-18.8593392244 -4.71393743961 0)
(-18.9585760874 -5.16176994326 0)
(-19.0267173751 -5.6718247298 0)
(-19.0641731468 -6.24777454497 0)
(-19.0713441776 -6.89407606894 0)
(-19.0484533928 -7.61594621329 -4.13114993597e-27)
(-18.9959570199 -8.41987834387 4.14689215001e-27)
(-18.9132214634 -9.3125763588 0)
(-18.8015475223 -10.3045392356 0)
(-18.6551822433 -11.3911430295 0)
(-18.502138589 -12.3310890008 0)
(-18.3591007358 -13.0709603595 0)
(-18.2293604624 -13.5944174633 0)
(-18.1145734623 -13.9004950059 0)
(-18.0135647894 -13.9964765569 0)
(-17.9233447088 -13.8940499233 0)
(-17.8410832199 -13.6092964527 0)
(-17.7642426794 -13.162266588 0)
(-17.6900046933 -12.575705418 0)
(-17.6150604921 -11.8737236659 0)
(-17.5356944246 -11.0807015907 0)
(-17.4478878802 -10.2203847939 0)
(-17.347390534 -9.31513821414 0)
(-17.2298065745 -8.38537031931 0)
(-17.0907210458 -7.4491346858 0)
(-16.9258618163 -6.52189753782 0)
(-16.7312868962 -5.61644784613 0)
(-16.5035890581 -4.74292420217 0)
(-16.2401083458 -3.90893157067 0)
(-15.9391380776 -3.11972444257 0)
(-15.6001041414 -2.3784362976 0)
(-15.2236922113 -1.68634265384 0)
(-14.8118944575 -1.04314980548 0)
(-14.3679475353 -0.447306936738 0)
(-13.8961396845 0.103660096569 0)
(-13.4014759657 0.612797214578 0)
(-12.8892099179 1.08336258831 0)
(-12.3642687134 1.51847351351 0)
(-11.8306285111 1.9207794555 0)
(-11.2906945477 2.29218428616 0)
(-10.7448019263 2.63362592958 0)
(-10.1908123054 2.94494594052 0)
(-9.62414183474 3.22479000934 0)
(-9.03754310552 3.47068781534 0)
(-8.42267877071 3.67891997281 0)
(-7.7680761446 3.84542744999 0)
(-7.06867776065 3.96459224784 0)
(-6.30490427324 4.03595078885 0)
(-5.51015951139 4.05179383118 0)
(-4.58732655085 4.04620468761 0)
(-3.85955703957 3.96951261449 0)
(-2.44326897184 4.10785090008 0)
(-3.44354042785 3.90582795113 0)
(4.20433053688 7.35587895119 0)
(-9.29453457924 7.86689132178 0)
(26.1434754192 -21.2901529725 0)
(-7.99747254866 -3.30751206142 0)
(-2.16425704593 -6.62112751856 0)
(-3.54492211812 -8.27673259085 0)
(-6.44864737372 -8.3581879611 0)
(-8.20684131458 -8.0447526653 0)
(-9.37990152878 -7.53294599646 0)
(-10.3543413374 -6.90198604784 0)
(-11.1859918642 -6.24424018601 0)
(-11.8998740182 -5.61396503753 0)
(-12.5344852776 -5.03084208277 0)
(-13.1185953162 -4.49855165398 0)
(-13.6673512134 -4.0142407853 0)
(-14.1880792858 -3.57210202714 0)
(-14.6843716446 -3.16520978336 0)
(-15.1577596379 -2.78659359928 0)
(-15.6085260583 -2.42972564052 0)
(-16.0362856898 -2.08865821389 0)
(-16.4403928573 -1.75801282793 0)
(-16.8201798924 -1.43291706578 0)
(-17.1750753819 -1.10892360394 0)
(-17.5046548927 -0.781924671013 0)
(-17.8086576137 -0.44806904588 0)
(-18.0869861192 -0.103683158018 0)
(-18.339698358 0.254804520814 0)
(-18.5669974358 0.630939727851 0)
(-18.7692214469 1.02832034033 0)
(-18.9468372133 1.45068571183 0)
(-19.1004299372 1.90200464584 0)
(-19.2307164804 2.38661554813 0)
(-19.3385034549 2.90928788813 0)
(-19.424871474 3.47561082959 0)
(-19.4908434423 4.09159095115 0)
(-19.538820344 4.76571410184 0)
(-19.5667006731 5.47501397381 0)
(-19.5562292333 6.07580293948 0)
(-19.5033028706 6.55457559488 0)
(-19.4091573165 6.9037310053 0)
(-19.276435931 7.12168248106 0)
(-19.1077862455 7.2129109905 0)
(-18.9055767074 7.18801866392 0)
(-18.6725433356 7.06208114864 0)
(-18.4120619619 6.85269809446 0)
(-18.1278785955 6.57857326593 0)
(-17.8238143029 6.25843615421 0)
(-17.5036169582 5.91010275838 0)
(-17.1708539019 5.54970207148 0)
(-16.8287769562 5.1911313648 0)
(-16.4801747526 4.84574714941 0)
(-16.1272408681 4.52226339356 0)
(-15.7714707222 4.22682278607 0)
(-15.413593541 3.96320592587 0)
(-15.0535477287 3.73314306205 0)
(-14.6905095133 3.53669264481 0)
(-14.3229829062 3.3726547136 0)
(-13.9489544107 3.23899067423 0)
(-13.5661090989 3.13322614775 0)
(-13.1720953238 3.05281635109 0)
(-12.7648139096 2.99545686338 0)
(-12.3426961221 2.95932417796 0)
(-11.9049244481 2.94323570868 0)
(-11.4515485599 2.94671760228 0)
(-10.9834491559 2.96998245184 0)
(-10.5021306342 3.01381405805 0)
(-10.0093205752 3.07938222548 0)
(-9.50645973553 3.16797774233 0)
(-8.99400999685 3.28073610241 0)
(-8.47102041508 3.4182419201 0)
(-7.934130431 3.58021264681 0)
(-7.3786506152 3.76473441319 0)
(-6.79492898223 3.96833827424 0)
(-6.17944983724 4.18310093471 0)
(-5.50703133483 4.40194445174 0)
(-4.81674538518 4.60159651364 0)
(-3.97616176692 4.79506029112 0)
(-3.39181262796 4.88867693363 0)
(-1.91799549065 5.15969440518 0)
(-3.55601928006 4.91357682976 0)
(5.66702443724 8.54300884166 0)
(-11.5353999894 8.24100214032 0)
(38.0363861785 -21.0639375577 0)
(-13.5599759922 -4.40868759596 0)
(-2.38575845941 -9.66894966782 0)
(-4.50709055952 -10.4175234448 0)
(-7.34116698189 -9.84924679534 0)
(-8.59048834371 -9.15390861142 0)
(-9.3622035159 -8.37169030538 0)
(-10.0376130716 -7.5727093397 0)
(-10.6341020005 -6.8305525586 0)
(-11.1705208616 -6.16847262465 0)
(-11.6780001338 -5.58404460495 2.1805608103e-27)
(-12.1741041164 -5.068956535 -2.15029975764e-27)
(-12.6640465584 -4.61419141493 0)
(-13.1475882627 -4.21104889902 0)
(-13.6224724111 -3.85179295819 0)
(-14.0855984614 -3.53000090899 0)
(-14.5335786127 -3.24055600217 0)
(-14.9631167512 -2.97947287861 0)
(-15.3712345649 -2.74370329326 0)
(-15.7553671935 -2.5309701772 0)
(-16.1133778519 -2.3396337878 0)
(-16.4435328214 -2.16858713849 0)
(-16.7444605232 -2.01717777522 0)
(-17.015106426 -1.88515298955 0)
(-17.2546894413 -1.77262443688 0)
(-17.4626626363 -1.68004922709 0)
(-17.6386793669 -1.6082243702 0)
(-17.7825642084 -1.55829485704 0)
(-17.8942918695 -1.53177074314 0)
(-17.9739592394 -1.53056488882 0)
(-18.0218011773 -1.55702491014 0)
(-18.0380654548 -1.61403960289 4.69940911232e-27)
(-18.023320148 -1.70507527154 -4.74100702926e-27)
(-17.9775317988 -1.83454867891 0)
(-17.904965827 -1.97191207047 0)
(-17.8182609092 -2.05354342385 0)
(-17.7201955689 -2.07026056358 0)
(-17.6117064411 -2.01814138678 0)
(-17.4933836635 -1.89870280777 0)
(-17.3650716362 -1.71800563309 0)
(-17.2256429702 -1.48509084846 0)
(-17.0734244735 -1.21071311633 0)
(-16.9066712984 -0.906430941841 0)
(-16.7237320251 -0.583724372706 0)
(-16.5230769507 -0.25315874104 0)
(-16.3033689624 0.0762407297789 0)
(-16.0635690997 0.397346196462 0)
(-15.8030184839 0.705047774174 0)
(-15.5214785 0.996180848007 0)
(-15.2191356138 1.26929976851 0)
(-14.8965747452 1.52434142356 0)
(-14.5547207757 1.76222809984 0)
(-14.1947502811 1.98445760204 0)
(-13.817980938 2.19272355941 0)
(-13.4257506293 2.38860025495 0)
(-13.0193019118 2.57331842377 0)
(-12.5996899769 2.74764812785 0)
(-12.167732916 2.91189512345 0)
(-11.7240193426 3.06600569467 0)
(-11.268981392 3.2097615343 0)
(-10.8030247166 3.34304255566 0)
(-10.326693494 3.46611499241 0)
(-9.84082078758 3.57991267304 0)
(-9.34662242856 3.68625290718 0)
(-8.84564714417 3.78797792834 0)
(-8.33961628115 3.88892733196 0)
(-7.82995923535 3.99385242909 0)
(-7.3175262991 4.10803430633 0)
(-6.80139513407 4.23691892851 0)
(-6.279997634 4.38515062282 0)
(-5.74615938263 4.55640095489 0)
(-5.20015701985 4.74964038445 0)
(-4.61391455177 4.96414126125 0)
(-4.03694338047 5.178947916 0)
(-3.29949706965 5.40918524638 0)
(-2.90208762597 5.54290637026 0)
(-1.38988404212 5.87609942704 0)
(-3.79869562466 5.5742169804 0)
(7.24730181771 9.50296862868 0)
(-14.0394661105 8.51282299948 0)
(50.346071172 -20.4856973577 0)
(-20.3361880415 -6.43435932369 0)
(-1.91537917345 -12.8849389054 0)
(-5.11510823958 -12.2646713956 0)
(-7.61446673743 -11.0701389581 0)
(-8.3634566249 -10.0442462861 0)
(-8.86802215528 -9.05251007702 0)
(-9.37780221374 -8.14458559121 0)
(-9.86031756311 -7.3556172571 0)
(-10.3275260668 -6.67492861751 0)
(-10.8002913385 -6.08184579849 0)
(-11.2852480359 -5.55899206637 0)
(-11.7801960368 -5.09240676489 0)
(-12.2801769077 -4.67066040537 0)
(-12.7796151224 -4.28461392139 0)
(-13.2729431212 -3.92715723331 0)
(-13.7549390024 -3.59280490744 0)
(-14.2209456878 -3.2772914519 0)
(-14.6669664621 -2.97724478355 0)
(-15.0896694643 -2.68994096964 0)
(-15.4863434614 -2.41312278466 0)
(-15.8548336742 -2.14486629495 0)
(-16.1934734245 -1.8834837399 0)
(-16.5010196265 -1.62745237777 0)
(-16.7765957652 -1.3753609724 0)
(-17.0196443592 -1.1258662022 0)
(-17.2298871045 -0.877654408846 0)
(-17.4072980197 -0.62940270161 0)
(-17.5520712205 -0.379738480163 0)
(-17.6646336595 -0.127192321372 0)
(-17.7455563438 0.129864249027 0)
(-17.7957727203 0.393262700938 0)
(-17.8159376275 0.665244688805 0)
(-17.8079754731 0.948170799932 0)
(-17.7695131312 1.21925549381 0)
(-17.6980637129 1.45514610505 0)
(-17.5937197657 1.65231475849 0)
(-17.4582038676 1.81056789365 0)
(-17.293965356 1.93251102326 0)
(-17.1036699942 2.02279207954 0)
(-16.8899007172 2.08756132586 0)
(-16.6551298415 2.13384589181 0)
(-16.4017716316 2.16875950269 0)
(-16.13211509 2.19880363576 0)
(-15.8481735972 2.22942319153 4.25888380329e-27)
(-15.5515675341 2.2647974849 -4.28453807351e-27)
(-15.2434748726 2.30780753829 0)
(-14.9246277438 2.36014130073 0)
(-14.5953395804 2.42249983676 0)
(-14.2555628076 2.49485646482 0)
(-13.9049758473 2.57672028095 0)
(-13.5430902437 2.66736506991 0)
(-13.1693643499 2.76599838513 0)
(-12.7833093915 2.8718585303 0)
(-12.3845750495 2.9842397282 0)
(-11.9730044531 3.10245748382 0)
(-11.5486537172 3.22577519529 0)
(-11.1117791725 3.35332045108 0)
(-10.6628029147 3.48402467521 0)
(-10.2022795103 3.61660814225 0)
(-9.73088139907 3.74965384722 0)
(-9.24942815571 3.88175788676 0)
(-8.75894517288 4.01178647802 0)
(-8.26075854658 4.13915987694 0)
(-7.75652800671 4.26421344378 0)
(-7.24827704076 4.38838717658 0)
(-6.73811445449 4.51449617086 0)
(-6.22818925503 4.64652620402 0)
(-5.71952772193 4.78944969216 0)
(-5.21350335901 4.94821481282 0)
(-4.70579813883 5.1275592495 0)
(-4.20215764563 5.3276530812 0)
(-3.67408243912 5.54912905822 0)
(-3.18761292712 5.77008802819 0)
(-2.53726185306 6.00743247895 0)
(-2.33708085294 6.13458291161 0)
(-0.779153717752 6.47481406638 0)
(-4.1148980934 6.05113565042 0)
(9.00568841535 10.2843873008 0)
(-16.7431021845 8.66390117098 0)
(63.6811417596 -20.0970001806 0)
(-28.2568321139 -9.29974808254 0)
(-0.607844497842 -15.907404179 0)
(-5.46787601607 -13.6086585746 0)
(-7.4279020928 -11.9274801653 0)
(-7.78347341827 -10.6600815464 0)
(-8.16058743281 -9.53932656183 0)
(-8.60391471985 -8.5904017023 0)
(-9.0490896505 -7.80282890879 0)
(-9.50638081984 -7.13843287216 0)
(-9.98756127632 -6.56519768889 0)
(-10.4913847768 -6.06059655307 0)
(-11.0113674862 -5.60806394885 0)
(-11.540114666 -5.19518185171 0)
(-12.0703458717 -4.81285336873 0)
(-12.5952119477 -4.45457686508 0)
(-13.1085284026 -4.11576173149 0)
(-13.6049043479 -3.79317539826 0)
(-14.0797648145 -3.48453623355 0)
(-14.5293076492 -3.18822553865 0)
(-14.9504300522 -2.90308887335 0)
(-15.3406451259 -2.62830338957 0)
(-15.6979997327 -2.36329286834 0)
(-16.0209995559 -2.10767605304 0)
(-16.3085443614 -1.86123744752 0)
(-16.5598734045 -1.62391184166 0)
(-16.7745216839 -1.39577919435 0)
(-16.9522835126 -1.17706155472 0)
(-17.0931869313 -0.968133197094 0)
(-17.1974694991 -0.769512519481 0)
(-17.2655697064 -0.581911211636 0)
(-17.2981159245 -0.406155344001 0)
(-17.2959730325 -0.243436800949 5.34530755664e-27)
(-17.2604893911 -0.0946878643273 -5.42555095326e-27)
(-17.1941060495 0.055683245237 0)
(-17.1000609581 0.215221852596 0)
(-16.9795772933 0.3855892265 0)
(-16.8337379949 0.566591150006 0)
(-16.663590539 0.756306463643 0)
(-16.4700424034 0.95160846267 0)
(-16.2538488357 1.14888000259 0)
(-16.0157212501 1.34467620129 0)
(-15.7564756127 1.53615413176 0)
(-15.4771137709 1.72128921934 0)
(-15.1788169317 1.8989534415 0)
(-14.8628973514 2.06888032264 0)
(-14.5307392463 2.23152626966 0)
(-14.1837293877 2.38786220962 0)
(-13.8231767699 2.53914294611 0)
(-13.4502330979 2.68669382664 0)
(-13.0658302736 2.83173937784 0)
(-12.6706471908 2.97528604984 0)
(-12.2651122513 3.11806103941 0)
(-11.849442106 3.26050126964 0)
(-11.4237111553 3.40277892194 0)
(-10.9879396961 3.5448493643 0)
(-10.5421840203 3.68650375668 0)
(-10.0866120335 3.82741357626 0)
(-9.62154688325 3.96716985658 0)
(-9.14748584004 4.10528866296 0)
(-8.66508833522 4.24126191767 0)
(-8.17517878063 4.37459207927 0)
(-7.67874303597 4.50495581201 0)
(-7.17699177085 4.63233825579 0)
(-6.67138748104 4.75743043437 0)
(-6.16375739101 4.88171200546 0)
(-5.6561558124 5.00804540291 0)
(-5.15098666459 5.14038811882 0)
(-4.65003520133 5.28395277402 0)
(-4.15646034013 5.44395307716 0)
(-3.66774607473 5.62560308832 0)
(-3.19490776187 5.82905719533 0)
(-2.70914916473 6.05425532294 0)
(-2.29650743282 6.27645619853 0)
(-1.71536689241 6.51214989285 0)
(-1.71045474557 6.61845352082 0)
(-0.0771086557894 6.94463768018 0)
(-4.49302260628 6.36839259427 0)
(11.0263441898 10.9307248854 0)
(-19.6529159273 8.7222812605 0)
(78.0291231009 -19.8343726724 0)
(-37.2471199982 -12.6541990816 0)
(1.69240807885 -18.4286352128 0)
(-5.66785961986 -14.4611021613 0)
(-6.91750192829 -12.5504335161 0)
(-7.04855975637 -11.1437232811 0)
(-7.41033856213 -9.96753329409 0)
(-7.84751102979 -9.02423426073 0)
(-8.29804306057 -8.2619370345 0)
(-8.77507277019 -7.62545137128 0)
(-9.28363722316 -7.07706739088 0)
(-9.81801252717 -6.59129233643 0)
(-10.3698311785 -6.14995536539 0)
(-10.9306741281 -5.74015843739 0)
(-11.492505827 -5.35303274557 0)
(-12.0479221477 -4.98265509254 0)
(-12.5903531544 -4.62515379224 0)
(-13.11414374 -4.2780380034 0)
(-13.6145363402 -3.93971978138 0)
(-14.087602857 -3.60918435059 0)
(-14.5301560267 -3.28577068689 0)
(-14.9396564275 -2.96903169993 0)
(-15.3141244046 -2.65864961843 0)
(-15.6520615215 -2.35438746399 0)
(-15.952384047 -2.05606299164 0)
(-16.2143671214 -1.76353413727 0)
(-16.4376013839 -1.47669204147 0)
(-16.6219553725 -1.19545046538 0)
(-16.7675522597 -0.919747086479 0)
(-16.8747452866 -0.64951059849 0)
(-16.9441078481 -0.384702987481 0)
(-16.9764556603 -0.125165587455 0)
(-16.9727277603 0.12904262662 0)
(-16.9343816366 0.378357385574 0)
(-16.8605384679 0.615067970363 0)
(-16.752250358 0.837447954407 0)
(-16.6108983192 1.04549615068 0)
(-16.4383041912 1.24021834821 0)
(-16.2365341121 1.42325234052 0)
(-16.0077404024 1.59652301322 0)
(-15.7540335169 1.76198128132 0)
(-15.4774167646 1.92141943322 0)
(-15.1797763358 2.07633983081 0)
(-14.8628832871 2.22789098016 0)
(-14.5283831199 2.37689293248 0)
(-14.1777836342 2.52393340618 0)
(-13.8124540675 2.66948687414 0)
(-13.4336313961 2.8140147871 0)
(-13.0424231821 2.95802449813 0)
(-12.6398024443 3.10207905347 0)
(-12.2265970253 3.24676074788 0)
(-11.8034790762 3.39259974244 0)
(-11.3709618577 3.53998601652 0)
(-10.9294106432 3.68908737058 0)
(-10.4790741949 3.83978882681 0)
(-10.0201372972 3.99167372019 0)
(-9.55278955855 4.14404585178 0)
(-9.07730197533 4.29598581008 0)
(-8.59408254238 4.44646518381 0)
(-8.10372761613 4.59438898885 0)
(-7.60701758965 4.73876084324 0)
(-7.10493040605 4.87869607524 0)
(-6.59861055143 5.01367068879 0)
(-6.08937983274 5.1434596735 0)
(-5.5787563195 5.26877916695 0)
(-5.06849712264 5.39093002019 0)
(-4.56066585497 5.51293410159 0)
(-4.05762171373 5.63877796538 0)
(-3.56142959921 5.77405412961 0)
(-3.07651935667 5.92400945215 0)
(-2.60130368446 6.09441326488 0)
(-2.15186616291 6.28539158265 0)
(-1.69949660258 6.49489424507 0)
(-1.35294722856 6.69468695359 0)
(-0.831267924602 6.90140340597 0)
(-1.02383592213 6.96461705571 0)
(0.706727341951 7.23554709403 0)
(-4.96339573927 6.52548679602 0)
(13.4279245075 11.4461258412 0)
(-22.7936070778 8.65930621087 0)
(93.2119264567 -19.7616539479 0)
(-47.1960133497 -16.3081221791 0)
(5.01985307326 -20.3389696002 0)
(-5.9111644033 -14.9396772602 0)
(-6.23472465729 -13.0495264095 0)
(-6.31571043499 -11.5607538512 0)
(-6.71521883107 -10.3751170316 0)
(-7.16512320937 -9.46140803099 0)
(-7.63439697786 -8.73497376423 0)
(-8.13790678579 -8.13228130981 0)
(-8.67544159615 -7.61255714175 0)
(-9.23888502713 -7.14815294815 0)
(-9.81898117735 -6.71986613959 0)
(-10.4067269701 -6.31476543246 0)
(-10.9936455144 -5.92454395302 0)
(-11.5720532029 -5.54413190971 0)
(-12.1352322856 -5.17062628135 0)
(-12.6774658405 -4.80251748962 0)
(-13.1939861539 -4.43915175143 0)
(-13.6808843791 -4.08037160815 0)
(-14.1350077092 -3.72628757024 0)
(-14.5538577162 -3.37714246941 0)
(-14.935497386 -3.03323801168 0)
(-15.2784698498 -2.69490081953 0)
(-15.5817308081 -2.36247176521 0)
(-15.8445908388 -2.03630701994 0)
(-16.0666737019 -1.71678633135 0)
(-16.2478706631 -1.40431670806 0)
(-16.3883335945 -1.09935310939 0)
(-16.4883991314 -0.802370558006 0)
(-16.5486980916 -0.5139642219 0)
(-16.5698343299 -0.234612639841 0)
(-16.5531771811 0.0346397318345 0)
(-16.499236328 0.294681974262 0)
(-16.4097687798 0.549002328726 0)
(-16.2858349238 0.79788569718 0)
(-16.1286889541 1.04114690849 0)
(-15.9397454225 1.27819532675 0)
(-15.7205381819 1.50820602186 0)
(-15.4727052552 1.73032580911 0)
(-15.1979777648 1.94387868948 0)
(-14.8981721569 2.14851846077 0)
(-14.5751866451 2.34429001429 0)
(-14.2309857458 2.5316047032 0)
(-13.8675598306 2.71116911724 0)
(-13.4868667058 2.8839040136 0)
(-13.0907714564 3.05087044232 0)
(-12.6809946655 3.21320736741 0)
(-12.2590717486 3.37208012198 0)
(-11.826324788 3.52863435275 0)
(-11.3838484989 3.68394846942 0)
(-10.9325111363 3.83897694828 0)
(-10.4729710382 3.99448184264 0)
(-10.0057062727 4.15096519111 0)
(-9.53106021111 4.30859865198 0)
(-9.0492972179 4.46718841594 0)
(-8.5606688654 4.62617276351 0)
(-8.06549061935 4.78463959612 0)
(-7.5641829108 4.94149921356 0)
(-7.0573452507 5.09543938097 0)
(-6.54575195675 5.24525658575 0)
(-6.03037493143 5.38971033663 0)
(-5.51238856224 5.52809774403 0)