/*--------------------------------*- C++ -*----------------------------------*\
| =========                 |                                                 |
| \\      /  F ield         | OpenFOAM: The Open Source CFD Toolbox           |
|  \\    /   O peration     | Version:  v1806                                 |
|   \\  /    A nd           | Web:      www.OpenFOAM.com                      |
|    \\/     M anipulation  |                                                 |
\*---------------------------------------------------------------------------*/
FoamFile
{
    version     2.0;
    format      ascii;
    class       volVectorField;
    location    "900";
    object      Ua;
}
// * * * * * * * * * * * * * * * * * * * * * * * * * * * * * * * * * * * * * //

dimensions      [0 1 -1 0 0 0 0];


internalField   nonuniform List<vector> 
6400
(
(-0.879399579199 -0.386286455773 0)
(-1.74974474717 0.455348619197 0)
(-3.00131531786 1.69302378023 0)
(-4.25598216189 1.59900621509 0)
(-5.30816457292 0.910394702071 0)
(-6.79358002392 -3.48015058186 0)
(-7.74207396272 -5.33974981994 0)
(-8.50546661749 -7.33142973288 0)
(-9.14315696028 -9.52009739377 0)
(-9.65894092025 -11.8468916935 0)
(-10.0740834371 -14.2656333906 0)
(-10.4134287659 -16.7480592218 0)
(-10.6947652335 -19.2762644901 0)
(-10.9292521369 -21.8370610971 0)
(-11.1246653272 -24.4198630975 0)
(-11.2872679448 -27.0161889975 0)
(-11.4223214698 -29.6194309352 0)
(-11.5341681588 -32.2245669165 0)
(-11.6263302947 -34.8278832118 0)
(-11.7016579261 -37.4267686261 0)
(-11.762466398 -40.0195718365 0)
(-11.8106420791 -42.6054962915 0)
(-11.8477236683 -45.1845166596 0)
(-11.874968842 -47.7573123096 0)
(-11.8934103855 -50.3252162894 0)
(-11.9039029082 -52.8901789877 0)
(-11.9071617369 -55.4547454222 0)
(-11.9037939855 -58.0220476221 0)
(-11.8943292894 -60.5958102646 0)
(-11.8792382737 -63.1803862162 0)
(-11.8589987767 -65.7808126542 0)
(-11.8340945449 -68.4030381414 0)
(-11.8054097751 -71.0542110297 0)
(-11.7735438997 -73.7435475918 0)
(-11.7393292342 -76.4793785764 0)
(-11.6905039613 -79.2571534089 0)
(-11.6100793281 -82.0156156333 0)
(-11.5000642741 -84.616520682 0)
(-11.3716493868 -86.9300254958 0)
(-11.2328756238 -88.9353273651 0)
(-11.0886484364 -90.6207228991 0)
(-10.941195374 -91.9788259177 0)
(-10.7915854187 -93.0049474059 0)
(-10.6406132827 -93.6967023696 0)
(-10.4890115746 -94.0538662226 0)
(-10.3374436085 -94.0782296253 0)
(-10.1865109106 -93.7734865464 0)
(-10.0367901367 -93.1451859964 0)
(-9.88886683585 -92.2007353694 0)
(-9.74335644389 -90.9494346323 0)
(-9.60091802609 -89.4025324342 0)
(-9.46226531652 -87.5732995747 0)
(-9.32817505028 -85.4771147993 0)
(-9.19949020027 -83.1315512608 0)
(-9.07711547186 -80.5564474317 0)
(-8.96200249691 -77.7739394795 0)
(-8.85512269793 -74.8084290776 0)
(-8.75742636516 -71.6864568942 0)
(-8.6697877624 -68.4364539821 0)
(-8.59293747617 -65.0883462684 0)
(-8.52738490534 -61.6729971003 0)
(-8.4733354605 -58.2214833662 0)
(-8.43060741007 -54.7642159561 0)
(-8.39855542531 -51.3299295299 0)
(-8.37600188845 -47.9445774864 0)
(-8.361188548 -44.6301834648 0)
(-8.35172368247 -41.4036832619 0)
(-8.34458738996 -38.2758480342 0)
(-8.3360230271 -35.2502221095 0)
(-8.32174989186 -32.3224208454 0)
(-8.29637966155 -29.479075157 0)
(-8.25498660976 -26.6986527179 0)
(-8.18932384475 -23.9489068989 0)
(-8.09863718138 -21.196451518 0)
(-7.96295322501 -18.3884104291 0)
(-7.81482885731 -15.513161836 0)
(-7.53409513238 -12.4286062366 0)
(-7.3561618196 -9.28212686118 0)
(-5.9965010157 -4.87566617561 0)
(-4.95847136608 -0.350231966541 0)
(-1.2528952396 -1.72787903009 0)
(-1.75143438456 -1.2693127596 0)
(-3.63518745667 -2.70738527256 0)
(-5.09482189165 -3.98672661877 0)
(-6.55921547201 -3.29854248406 0)
(-7.86264562507 -1.62862136245 0)
(-8.9314467369 -0.0704254838935 0)
(-9.97579343285 1.40709674782 0)
(-11.0117586622 2.86752562172 0)
(-12.0026750818 4.34503151015 0)
(-12.9295502801 5.85607245454 0)
(-13.789584098 7.40763214594 0)
(-14.5846080277 9.00177689233 0)
(-15.3168894022 10.638146355 0)
(-15.9890962774 12.3152545821 0)
(-16.6045722314 14.0311201444 0)
(-17.1670992872 15.783585567 0)
(-17.680528756 17.5705110773 0)
(-18.1485496526 19.3899104472 0)
(-18.5745957453 21.240048947 0)
(-18.9618181618 23.1195173738 0)
(-19.3130800678 25.0272901943 0)
(-19.6309619134 26.9627745082 0)
(-19.9177747545 28.925851077 0)
(-20.1755789162 30.9169105796 0)
(-20.4062052528 32.9368856251 0)
(-20.6112751794 34.9872828205 0)
(-20.7922237387 37.0702138899 0)
(-20.9503110607 39.1884371861 0)
(-21.0866638008 41.345387555 0)
(-21.2022224614 43.5452653484 0)
(-21.2979238139 45.7929724964 0)
(-21.374223395 48.0944645882 0)
(-21.4333784721 50.4555557493 0)
(-21.479433189 52.8837209388 0)
(-21.5415283095 55.3767392823 0)
(-21.6182049358 57.748250044 0)
(-21.6847320504 59.902861083 0)
(-21.7200777096 61.7568696897 0)
(-21.719706477 63.3104841175 0)
(-21.6835440377 64.5631380792 0)
(-21.6112625984 65.5150624667 0)
(-21.5019218962 66.1681305544 0)
(-21.3544312278 66.5259300128 0)
(-21.1677218717 66.5937027384 0)
(-20.9407282637 66.3783357767 0)
(-20.6723657568 65.8883658724 0)
(-20.3615486633 65.1339677738 0)
(-20.0072282542 64.1269322283 0)
(-19.6084356126 62.8806502412 0)
(-19.1643289634 61.4101078012 0)
(-18.6742502176 59.7318888779 0)
(-18.1377942041 57.8641749036 0)
(-17.5548922284 55.8267270155 0)
(-16.925910103 53.640829688 0)
(-16.2517589327 51.329174709 0)
(-15.5340144446 48.9156611895 0)
(-14.7750374262 46.4250936619 0)
(-13.9780847501 43.8827641253 0)
(-13.1473976975 41.3139170504 0)
(-12.2882529184 38.7431059052 0)
(-11.4069619461 36.1934655804 0)
(-10.510807444 33.685934124 0)
(-9.60791126958 31.238468006 0)
(-8.70703189669 28.8652971239 0)
(-7.8173095235 26.5762650758 0)
(-6.94795044283 24.3763003733 0)
(-6.10793764028 22.2650495413 0)
(-5.30561451125 20.2367506417 0)
(-4.54863340227 18.2802987111 0)
(-3.84299897078 16.379960254 0)
(-3.19468990785 14.5159323766 0)
(-2.6044207337 12.667881088 0)
(-2.08161028055 10.8136533222 0)
(-1.60521332623 8.95104609652 0)
(-1.23700414033 7.06411506996 0)
(-0.796682263413 5.291134209 0)
(-0.88704718445 3.54951681837 0)
(0.716475849594 3.78102010184 0)
(-2.18611180368 4.8687230622 0)
(-3.04858454829 -3.82408803413 0)
(-4.7096341423 -4.48575150226 0)
(-5.13067795661 -3.29837032265 -4.72072081114e-29)
(-5.01062880913 -2.5926370862 2.99329122729e-29)
(-5.11732437615 -2.08374492802 5.75559018825e-29)
(-5.41080850744 -1.98848140037 -4.69479137383e-29)
(-5.87673337244 -2.09101975109 8.29310832955e-29)
(-6.46964413961 -2.27078349052 -7.35436564174e-29)
(-7.11352596914 -2.49526576856 0)
(-7.7448377073 -2.76289160385 0)
(-8.33106245782 -3.07801778494 0)
(-8.86115061237 -3.44574158849 0)
(-9.33321179853 -3.87085749157 0)
(-9.74874553426 -4.35700232927 0)
(-10.1109150888 -4.90627119797 0)
(-10.423834759 -5.51939679378 0)
(-10.6919674919 -6.19613475976 0)
(-10.9196743572 -6.93560562624 0)
(-11.110977803 -7.7365504052 0)
(-11.2694787888 -8.59752965179 0)
(-11.3983476925 -9.51708803974 0)
(-11.5003437715 -10.4938913333 0)
(-11.5778465523 -11.5268390458 0)
(-11.6328934443 -12.6151577915 0)
(-11.6672196808 -13.7584806349 0)
(-11.6822981591 -14.9569166709 0)
(-11.6793757704 -16.2111172205 0)
(-11.6595101565 -17.52233523 0)
(-11.6235918237 -18.8925055893 0)
(-11.5723950963 -20.3242851732 -1.68726142538e-27)
(-11.5065253404 -21.8212537151 1.68608032936e-27)
(-11.4266199945 -23.3877298115 0)
(-11.3325010375 -25.0298013937 0)
(-11.2236169696 -26.7530490843 0)
(-11.0894233055 -28.5698729445 0)
(-10.9203374224 -30.3945046153 0)
(-10.7514775628 -31.9810862352 0)
(-10.6011386101 -33.3201409669 0)
(-10.4724842606 -34.4119136897 0)
(-10.3624856003 -35.2544414644 0)
(-10.2695834991 -35.8493981847 0)
(-10.1938536866 -36.2018644195 0)
(-10.13572504 -36.3192379173 0)
(-10.0955209132 -36.2108309552 0)
(-10.0734115443 -35.8877378245 0)
(-10.0693649254 -35.3626605409 0)
(-10.0830532617 -34.6496844061 0)
(-10.1137631416 -33.7640623883 0)
(-10.1603238252 -32.722032113 0)
(-10.2210456872 -31.5406630006 0)
(-10.2936631093 -30.2377254317 0)
(-10.3752826733 -28.8315722797 0)
(-10.4623405355 -27.3410197181 0)
(-10.5505739575 -25.7852098402 0)
(-10.6350132425 -24.1834358584 0)
(-10.7100019978 -22.5549120677 0)
(-10.7692547526 -20.9184763407 0)
(-10.8059610342 -19.2922216758 0)
(-10.8129431326 -17.6930645566 0)
(-10.7828711062 -16.1362703273 0)
(-10.7085323092 -14.6349670951 0)
(-10.5831454307 -13.1996879703 0)
(-10.4006994847 -11.837984521 0)
(-10.1562930921 -10.5541526628 0)
(-9.84643775306 -9.3491038496 0)
(-9.4693055483 -8.22040964526 0)
(-9.02485908875 -7.16252738738 0)
(-8.51493762358 -6.16725433064 0)
(-7.94304441748 -5.22437476015 0)
(-7.31450099781 -4.32273472712 0)
(-6.63516479359 -3.45137233948 0)
(-5.9136404353 -2.60234253484 0)
(-5.15324235013 -1.77128355594 0)
(-4.37179325601 -0.967876523827 0)
(-3.54212556066 -0.200605816484 0)
(-2.76508528196 0.464583190972 0)
(-1.76829594386 1.10198979417 0)
(-1.54890492958 1.4442370341 0)
(1.47407520144 3.53559321614 0)
(-3.10204344704 5.0867276046 0)
(-1.35536603634 -8.28108002549 0)
(-5.31820895577 -2.28436827753 0)
(-3.69451132765 -1.73493628615 0)
(-3.0714461858 -2.55569076885 0)
(-3.66560688689 -2.99861081018 0)
(-4.49963208408 -3.14201911914 0)
(-5.34557008888 -3.11182253213 0)
(-6.1847863233 -2.9450804866 0)
(-6.98109145868 -2.68250930496 0)
(-7.7068303228 -2.36313050571 0)
(-8.35751103937 -2.01166130268 0)
(-8.94027137794 -1.64105248479 0)
(-9.46425739677 -1.25746871411 0)
(-9.93768808148 -0.86294980327 0)
(-10.3675980405 -0.456840138581 0)
(-10.7599360147 -0.0368896809504 0)
(-11.1196230909 0.399909994773 0)
(-11.4506441757 0.856801371078 0)
(-11.7561902799 1.33698161944 0)
(-12.0388148928 1.84347208594 0)
(-12.3005742512 2.37907360725 0)
(-12.5431415708 2.94637551895 0)
(-12.7678972266 3.54779975076 0)
(-12.9759994558 4.18566680885 0)
(-13.168440364 4.86227433581 0)
(-13.3460884164 5.57998245009 0)
(-13.5097249032 6.34130355689 0)
(-13.6600605719 7.14899471947 0)
(-13.7977770385 8.00615580853 0)
(-13.9234630967 8.91632971869 0)
(-14.0378069793 9.88361565529 0)
(-14.1410000952 10.9127897874 0)
(-14.2344609591 12.0094676531 0)
(-14.3168956788 13.1806065182 0)
(-14.3995874259 14.4353499499 0)
(-14.4644089537 15.5981997465 0)
(-14.4901759845 16.580822976 0)
(-14.4795650949 17.3773272101 0)
(-14.4375371397 17.9823164781 0)
(-14.3640090339 18.3968212688 0)
(-14.2580757791 18.6268207375 0)
(-14.1201076615 18.6815019626 0)
(-13.9512274877 18.5725966493 0)
(-13.7527598501 18.3139265398 0)
(-13.5261963384 17.9208557933 0)
(-13.2733077037 17.4097517616 3.24284960582e-27)
(-12.9962025171 16.7975226445 -3.2736581821e-27)
(-12.6973403927 16.1012262088 0)
(-12.3795335552 15.3377347314 0)
(-12.0459405352 14.5234523214 0)
(-11.7000429546 13.6740824634 0)
(-11.3455985881 12.8044384334 0)
(-10.9865667483 11.9282848864 0)
(-10.6270025241 11.0581975027 0)
(-10.2709167211 10.2054294968 0)
(-9.92210016155 9.37977797065 0)
(-9.58391480598 8.58944999178 0)
(-9.25905950803 7.8409359469 2.03611240906e-27)
(-8.94932487723 7.13890534931 -2.08851626441e-27)
(-8.65535842466 6.48614557062 0)
(-8.37646669576 5.88356659574 0)
(-8.11048415889 5.33029177871 0)
(-7.85373579793 4.82384896001 0)
(-7.60111670534 4.36046486523 0)
(-7.34629163432 3.93545804951 0)
(-7.08202592644 3.54371226453 0)
(-6.80058332149 3.18022125044 0)
(-6.49428207605 2.84066292389 0)
(-6.15584428488 2.5220902429 0)
(-5.77941024088 2.22349803228 0)
(-5.35972627438 1.9469193385 0)
(-4.8962538224 1.69731372913 0)
(-4.38325560474 1.48599873233 0)
(-3.83868151922 1.32302350424 0)
(-3.2210190649 1.23923725427 0)
(-2.6727188995 1.21482418761 0)
(-1.79859970887 1.39400515984 0)
(-1.99650632271 1.47466954931 0)
(1.81566164034 3.65493244145 0)
(-4.29469138905 4.83204212764 0)
(9.92065167817 -13.6450325371 0)
(-3.52794550015 -2.29730503172 0)
(-1.65299845946 -2.74899864219 0)
(-2.02545527638 -3.79544281634 0)
(-3.52026315286 -4.07205905312 0)
(-4.68907464293 -4.05119875876 0)
(-5.57488207006 -3.89153169522 0)
(-6.33288788208 -3.63703816881 0)
(-6.98864281707 -3.33955495904 0)
(-7.54867095356 -3.04123453991 0)
(-8.03110737354 -2.76502284887 0)
(-8.45438118023 -2.52132173273 0)
(-8.83151954572 -2.31438169925 0)
(-9.17110963757 -2.14532040019 0)
(-9.47897809231 -2.01358771083 0)
(-9.7591227169 -1.9179025409 0)
(-10.0142503886 -1.85684599943 0)
(-10.2461794859 -1.82916929019 0)
(-10.4561458124 -1.83391792055 0)
(-10.6450160716 -1.87046487008 0)
(-10.8134278479 -1.9385062037 0)
(-10.9618783209 -2.03804443595 0)
(-11.0907786779 -2.1693713667 0)
(-11.2004862977 -2.3330573443 0)
(-11.2913225344 -2.52995010179 0)
(-11.3635824871 -2.76118589258 0)
(-11.417537481 -3.02821070864 0)
(-11.4534390876 -3.33281931192 0)
(-11.4715063507 -3.67719017064 0)
(-11.471947827 -4.06398009835 0)
(-11.454876615 -4.49628840583 -2.34529357907e-27)
(-11.4204899979 -4.97802271925 2.35446648548e-27)
(-11.3684150428 -5.51309318729 0)
(-11.2990032001 -6.1080382177 0)
(-11.2097011105 -6.75441787366 0)
(-11.1189821161 -7.30532726874 0)
(-11.0346602291 -7.73693470889 0)
(-10.9587120065 -8.03978071235 0)
(-10.8922106721 -8.21355297741 0)
(-10.8343189833 -8.26260170707 0)
(-10.7831663013 -8.19390633976 0)
(-10.7370286759 -8.01709877089 0)
(-10.6943411877 -7.74416231449 0)
(-10.6533497675 -7.38866199821 0)
(-10.6120009108 -6.96496431884 0)
(-10.5679969445 -6.48759329013 0)
(-10.5188576531 -5.97069598479 0)
(-10.4619636504 -5.42760082171 0)
(-10.3946108924 -4.87047659994 0)
(-10.3140902211 -4.3100957336 0)
(-10.2177887706 -3.75569434777 0)
(-10.1033071025 -3.21491525703 0)
(-9.96858700431 -2.69381882913 0)
(-9.81204363602 -2.19694639587 0)
(-9.63269230314 -1.72742327422 0)
(-9.4302563901 -1.28709086103 0)
(-9.20523979825 -0.876661746308 0)
(-8.9589456603 -0.49589457917 0)
(-8.69342384014 -0.143787584358 0)
(-8.41133439207 0.181211161601 0)
(-8.11572248006 0.480980139399 0)
(-7.80971325962 0.757495706675 0)
(-7.49614807071 1.01260988698 0)
(-7.17720111854 1.24784952222 0)
(-6.8540146225 1.46425279706 0)
(-6.5264236969 1.66224951362 0)
(-6.19275736424 1.84160352697 0)
(-5.84991015301 2.00137608003 0)
(-5.49327921886 2.14000431832 0)
(-5.11775794388 2.25524728814 0)
(-4.71659203012 2.34473160865 0)
(-4.28705691742 2.40526285064 0)
(-3.81809282392 2.43684537013 0)
(-3.3301992192 2.4352371037 0)
(-2.76628998419 2.42104802565 0)
(-2.31924564526 2.36365429304 0)
(-1.46106899009 2.43201508112 0)
(-2.06044061424 2.28501746878 0)
(2.53094659366 4.35819567604 0)
(-5.49377100824 4.92063841984 0)
(16.6484855377 -12.5995422452 0)
(-5.24448983669 -1.95865617137 0)
(-1.36139872444 -4.16979525152 0)
(-2.30009236902 -5.15018432126 0)
(-4.08921936806 -5.18013594811 0)
(-5.14243420296 -4.97440738281 0)
(-5.83734680969 -4.64334487718 0)
(-6.40986131901 -4.23894464669 0)
(-6.89325557499 -3.82066650569 0)
(-7.30367440794 -3.42258213096 0)
(-7.6653941775 -3.0566790116 0)
(-7.99660059559 -2.72482225098 0)
(-8.30711171205 -2.4248305119 0)
(-8.60181666201 -2.1527572604 0)
(-8.88311121525 -1.90400303582 0)
(-9.15197256011 -1.67396472401 0)
(-9.40853698378 -1.45835219888 0)
(-9.65250399138 -1.25328868 0)
(-9.88340346407 -1.05530365077 0)
(-10.1007482536 -0.861283803864 0)
(-10.3041119467 -0.668412341024 0)
(-10.4931641725 -0.474108169453 0)
(-10.6676826343 -0.275968894257 0)
(-10.8275528233 -0.0717177321381 0)
(-10.9727620164 0.140846444354 0)
(-11.1033919284 0.363898419478 0)
(-11.2196108685 0.599636117857 0)
(-11.3216700283 0.850336361827 0)
(-11.4098924466 1.11840985369 0)
(-11.4846907693 1.40648654897 0)
(-11.5465104727 1.71745941124 0)
(-11.5960306722 2.05471390541 0)
(-11.6337174198 2.42194435559 0)
(-11.6614194276 2.82431274619 0)
(-11.6766612483 3.24065499716 0)
(-11.6689797072 3.59249234667 0)
(-11.6363437364 3.87192372994 0)
(-11.5796579037 4.07476715858 0)
(-11.5005488444 4.20019277813 0)
(-11.400544595 4.25097714987 0)
(-11.2810135487 4.23352998254 0)
(-11.1435862737 4.15686840311 0)
(-10.9902837472 4.03146677957 0)
(-10.823336444 3.86843092181 0)
(-10.6450108514 3.67886363574 0)
(-10.4575246563 3.4733091436 0)
(-10.2629811206 3.26129748408 0)
(-10.0632854814 3.05102534577 0)
(-9.86005471425 2.84917588203 0)
(-9.65453758886 2.66086042963 0)
(-9.4475524843 2.48966215349 0)
(-9.23944701609 2.33776111383 0)
(-9.03008499938 2.2061200444 0)
(-8.81886709486 2.0947099878 0)
(-8.6047901638 2.00275706142 0)
(-8.38654725243 1.92899360464 0)
(-8.16266553147 1.87189958969 0)
(-7.93167325317 1.82992165545 0)
(-7.69227923995 1.80165895134 0)
(-7.44354098682 1.7860050596 0)
(-7.18499150266 1.78223857637 0)
(-6.91669485724 1.79005588959 0)
(-6.63920346599 1.80954568425 0)
(-6.35340758916 1.8411083953 0)
(-6.06027156398 1.88533073333 0)
(-5.76050983799 1.94282275687 0)
(-5.45417132452 2.01404647464 0)
(-5.140395654 2.09908356416 0)
(-4.81685890162 2.19746758566 0)
(-4.48046423072 2.30774602726 0)
(-4.12527477712 2.42752399521 0)
(-3.74915334609 2.55177054831 0)
(-3.33737438533 2.67605458682 0)
(-2.91366848803 2.78638996357 0)
(-2.3997261089 2.89068906467 0)
(-2.03926224932 2.93228562846 0)
(-1.14542954197 3.07624193297 0)
(-2.13309889966 2.89702163058 0)
(3.40446518118 5.06761691395 0)
(-6.84625457915 5.12422608422 0)
(23.527867475 -12.5661679446 0)
(-8.53471586798 -2.81099969238 0)
(-1.44987482741 -6.09163222011 0)
(-2.847852453 -6.50177531136 0)
(-4.58245430557 -6.12863422352 0)
(-5.33142890377 -5.67391570425 0)
(-5.78722667104 -5.16246286245 0)
(-6.17781845381 -4.6435801517 0)
(-6.51570705089 -4.16478157373 0)
(-6.81543171268 -3.74068089395 0)
(-7.09773239667 -3.36934223468 1.16210964133e-27)
(-7.37424896776 -3.04481315658 -1.14565416863e-27)
(-7.64868450594 -2.76061715872 0)
(-7.92113204081 -2.51057937129 0)
(-8.19023686866 -2.28927486008 0)
(-8.45399929318 -2.09222795057 0)
(-8.71019377027 -1.91588678397 0)
(-8.95664836487 -1.75749806962 0)
(-9.19140203349 -1.61496753573 0)
(-9.41276751242 -1.48673664419 0)
(-9.61934007239 -1.37168199279 0)
(-9.80998069672 -1.26903741448 0)
(-9.98378857193 -1.1783362467 0)
(-10.140070388 -1.09937064743 0)
(-10.2783105654 -1.03216465858 0)
(-10.3981444417 -0.976958593278 0)
(-10.4993355634 -0.934202808758 0)
(-10.5817557885 -0.904559773639 0)
(-10.6453725549 -0.888913872015 0)
(-10.690228165 -0.888388378495 0)
(-10.7164599638 -0.904373742982 0)
(-10.7242063981 -0.938557066116 2.64227477383e-27)
(-10.7138803178 -0.993033322554 -2.6659739646e-27)
(-10.6854653515 -1.07027100323 0)
(-10.6419389026 -1.14832327981 0)
(-10.5903206099 -1.19339411244 0)
(-10.5322667709 -1.2000920163 0)
(-10.4683773167 -1.16620539149 0)
(-10.3989837391 -1.09277834409 0)
(-10.3239364899 -0.983497839537 0)
(-10.2425122879 -0.843744122223 0)
(-10.1536884397 -0.679871940541 0)
(-10.0564140697 -0.498688668773 0)
(-9.94969561962 -0.30693269067 0)
(-9.83261314525 -0.110781312713 0)
(-9.70436614833 0.0845117505983 0)
(-9.56433747608 0.27481976019 0)
(-9.41214092754 0.457207548465 0)
(-9.24764353702 0.629882706151 0)
(-9.07096663224 0.792056604189 0)
(-8.88246760945 0.943741220878 0)
(-8.68270203308 1.08551129612 0)
(-8.47236750703 1.21826046214 0)
(-8.25223415018 1.34297699469 0)
(-8.02306940846 1.46055975816 0)
(-7.78556731556 1.57169004609 0)
(-7.54029389533 1.67676882325 0)
(-7.28766079014 1.77592242253 0)
(-7.02793628332 1.86907394229 0)
(-6.76129716772 1.9560685679 0)
(-6.48791440852 2.03683591538 0)
(-6.20805552227 2.11156472925 0)
(-5.92217305432 2.1808633097 0)
(-5.63094865516 2.24587988177 0)
(-5.33524736951 2.30835961194 0)
(-5.03599529455 2.37061575593 0)
(-4.73388295875 2.43544188387 0)
(-4.42918130371 2.50585599564 0)
(-4.12103681333 2.58488607853 0)
(-3.80816290644 2.67497992063 0)
(-3.48597763043 2.77786577095 0)
(-3.15440152861 2.89234678226 0)
(-2.79671309159 3.01740283315 0)
(-2.44269944226 3.13995860578 0)
(-1.99134086511 3.26881099856 0)
(-1.74323158634 3.3360902028 0)
(-0.823583537198 3.5178451182 0)
(-2.27771929513 3.30287374221 0)
(4.35303704162 5.64053990688 0)
(-8.35053276498 5.26789893035 0)
(30.7509791521 -12.1639086275 0)
(-12.5370835768 -4.10195161918 0)
(-1.14254308067 -8.0471227204 0)
(-3.20294454284 -7.62071760254 0)
(-4.71877384959 -6.85963298413 0)
(-5.16152382718 -6.19170797343 0)
(-5.45136498175 -5.54501502048 0)
(-5.73653762084 -4.95682703119 0)
(-6.00171500937 -4.44971988912 0)
(-6.25777943421 -4.01647989631 0)
(-6.51899332379 -3.64318133111 0)
(-6.7899491193 -3.31771185971 0)
(-7.06940335667 -3.0301733619 0)
(-7.35419238834 -2.7725029365 0)
(-7.64066157273 -2.53833065037 0)
(-7.9251320697 -2.32276041707 0)
(-8.20415904348 -2.12206105937 0)
(-8.47468888008 -1.93337111638 0)
(-8.7341209433 -1.75446299214 0)
(-8.98030390059 -1.58356511914 0)
(-9.21149983778 -1.41923048192 0)
(-9.42633688106 -1.26024100183 0)
(-9.62376052058 -1.10553904113 0)
(-9.80298842668 -0.95417806957 0)
(-9.96347096519 -0.805286225753 0)
(-10.104858572 -0.65803732444 0)
(-10.226974833 -0.511626156368 0)
(-10.3297983564 -0.3652439406 0)
(-10.4134420025 -0.218053528607 0)
(-10.4781613587 -0.0691606954968 0)
(-10.5242990116 0.0824233677097 0)
(-10.5524268844 0.237802549079 0)
(-10.5629226005 0.39832631945 0)
(-10.5569540178 0.56532931133 0)
(-10.5328219888 0.723303625816 0)
(-10.4892939092 0.860693676268 0)
(-10.4265483602 0.975578702505 0)
(-10.3456634905 1.06792881263 0)
(-10.2481102149 1.13932130747 0)
(-10.1354695543 1.19251818355 0)
(-10.0092665615 1.23115649998 0)
(-9.87096237989 1.25937082839 0)
(-9.72198386359 1.2813229221 0)
(-9.56367755542 1.30079693664 0)
(-9.39721850878 1.32094752122 2.35828424562e-27)
(-9.22354257582 1.34418392482 -2.37254322973e-27)
(-9.04331929359 1.37215580079 0)
(-8.85695134596 1.40581910796 0)
(-8.66459222278 1.44556007408 0)
(-8.46618238707 1.49134845562 0)
(-8.26150285097 1.54289140222 0)
(-8.05024019984 1.59976520964 0)
(-7.83205459174 1.66151046833 0)
(-7.60664194188 1.72768394966 0)
(-7.37378234491 1.79786796219 0)
(-7.13336880254 1.8716449097 0)
(-6.88541384767 1.94855058323 0)
(-6.63003765349 2.02802248552 0)
(-6.36744563835 2.10936695984 0)
(-6.09790943683 2.19175969094 0)
(-5.82176277439 2.27429856172 0)
(-5.53942290129 2.35611084374 0)
(-5.2514337084 2.43650898756 0)
(-4.95851948533 2.51517961874 0)
(-4.66160638842 2.592370318 0)
(-4.36181837493 2.66902226771 0)
(-4.0602955141 2.7468770658 0)
(-3.75814538308 2.82831237463 0)
(-3.4557351195 2.91621930087 0)
(-3.15355224013 3.01335156987 0)
(-2.84871970009 3.12216613128 0)
(-2.54438507001 3.24210639278 0)
(-2.22343405687 3.37280787007 0)
(-1.92552492159 3.50048225666 0)
(-1.52781763248 3.63482295583 0)
(-1.39914968334 3.69964208165 0)
(-0.450358162057 3.88648851229 0)
(-2.46467416227 3.5974041054 0)
(5.41057089413 6.10606735163 0)
(-9.97397792874 5.33942076005 0)
(38.6740442848 -11.9373334115 0)
(-17.2336161501 -5.90441666811 0)
(-0.354933530858 -9.90083418469 0)
(-3.41591889686 -8.45708147433 0)
(-4.58770562211 -7.38727651537 0)
(-4.78729587589 -6.55628315682 0)
(-4.99375860736 -5.82124822828 0)
(-5.2339266207 -5.20372501721 0)
(-5.47467565919 -4.69660461025 0)
(-5.72525363728 -4.27440636719 0)
(-5.99358685256 -3.9151535807 0)
(-6.278830501 -3.6028835455 0)
(-6.57663307918 -3.32575464378 0)
(-6.88199533994 -3.07496685733 0)
(-7.19001630115 -2.8441600657 0)
(-7.49613988801 -2.62885039799 0)
(-7.79630968707 -2.42591371737 0)
(-8.08704023578 -2.23317852935 0)
(-8.36541479979 -2.04913121299 0)
(-8.62904123526 -1.87270975877 0)
(-8.87599121402 -1.70316278166 0)
(-9.10473674909 -1.53995625649 0)
(-9.31409078173 -1.38271434173 0)
(-9.50315470052 -1.23118359889 0)
(-9.67127409212 -1.08521274149 0)
(-9.81800203252 -0.944741737245 0)
(-9.94307054174 -0.809798095683 0)
(-10.0463665029 -0.680494040257 0)
(-10.127916942 -0.557034373447 0)
(-10.1878710707 -0.439706691251 0)
(-10.2265017531 -0.328927212015 0)
(-10.2441857274 -0.225152271409 0)
(-10.241458763 -0.12915531098 2.99816027032e-27)
(-10.2191409272 -0.0412984543556 -3.04364052596e-27)
(-10.1787792105 0.0484338420085 0)
(-10.1221637731 0.143511380728 0)
(-10.0499916194 0.244866049687 0)
(-9.96292298903 0.352333056902 0)
(-9.86159822937 0.464754307869 0)
(-9.74656789609 0.580292988032 0)
(-9.61829109343 0.696854360325 0)
(-9.47720579904 0.812467502728 0)
(-9.32381768978 0.925526720139 0)
(-9.15874463581 1.03491059332 0)
(-8.9827091279 1.14002253378 0)
(-8.7965077249 1.24076542805 0)
(-8.60097470295 1.33745610416 0)
(-8.39693938944 1.4307005408 0)
(-8.18517726752 1.52125790296 0)
(-7.96636242393 1.60991624573 0)
(-7.74103112292 1.69739390649 0)
(-7.50956367286 1.78427334048 0)
(-7.27218810745 1.87096814138 0)
(-7.02900543357 1.95771959847 0)
(-6.78003225113 2.04461421245 0)
(-6.52525285311 2.13161257525 0)
(-6.26466978801 2.21858036669 0)
(-5.99834500104 2.30530787293 0)
(-5.72642254763 2.39152894647 0)
(-5.44913630033 2.47692870217 0)
(-5.16680395039 2.56116628142 0)
(-4.87982402473 2.64391720489 0)
(-4.58868676597 2.7249522311 0)
(-4.29400530086 2.80427215699 0)
(-3.9965542557 2.8822798115 0)
(-3.69731955247 2.95991887247 0)
(-3.39741135918 3.03894389633 0)
(-3.0981158073 3.12174044699 0)
(-2.80032136434 3.21137282345 0)
(-2.50563894252 3.31073380383 0)
(-2.21232798534 3.4226131704 0)
(-1.92680772093 3.5462979687 0)
(-1.63184650547 3.68072148007 0)
(-1.37934137368 3.81030179782 0)
(-1.02479954383 3.94444407336 0)
(-1.01512887587 3.99780197686 0)
(-0.0205201735317 4.17638996443 0)
(-2.68937572809 3.79791580251 0)
(6.62965958779 6.48698599008 0)
(-11.7212708393 5.3535087364 0)
(47.2205266257 -11.7670621617 0)
(-22.567753907 -7.98199761298 0)
(1.01357634132 -11.4446673941 0)
(-3.54056452625 -8.98699540594 0)
(-4.26479695714 -7.75672958345 0)
(-4.32232514219 -6.82453568619 0)
(-4.51283802179 -6.04921707306 0)
(-4.74617657741 -5.43470416705 0)
(-4.99062270801 -4.94571401164 0)
(-5.25565836996 -4.5444234583 0)
(-5.54401689534 -4.20419162535 0)
(-5.85143348138 -3.9067111625 0)
(-6.17197739966 -3.63903654613 0)
(-6.49979603356 -3.39214290754 0)
(-6.8294452773 -3.15994353979 0)
(-7.15603804763 -2.93844874606 0)
(-7.47533680079 -2.72509651028 0)
(-7.78376716562 -2.51826522138 0)
(-8.07837575868 -2.31693584955 0)
(-8.35676305665 -2.12046440627 0)
(-8.61701003223 -1.9284335736 0)
(-8.85760783444 -1.74055983723 0)
(-9.07739497108 -1.5566383017 0)
(-9.27550351079 -1.37651172726 0)
(-9.45131490974 -1.20005432418 0)
(-9.60442362686 -1.02716318082 0)
(-9.73461007085 -0.857754390251 0)
(-9.84181572008 -0.691757480051 0)
(-9.92613328098 -0.529116657717 0)
(-9.98777962086 -0.369772241898 0)
(-10.027124468 -0.213687512124 0)
(-10.0446074731 -0.0607543171269 0)
(-10.0409362247 0.0889863626436 0)
(-10.0165868463 0.235760817012 0)
(-9.97146410132 0.374815865726 0)
(-9.90603334621 0.50551879396 0)
(-9.82115481025 0.627934846437 0)
(-9.71793439159 0.742695488949 0)
(-9.5976128164 0.850776491912 0)
(-9.46147263233 0.953302353568 0)
(-9.31076614527 1.05140231302 0)
(-9.14668171774 1.14610917975 0)
(-8.97034060043 1.23828694515 0)
(-8.78279811709 1.32859737586 0)
(-8.58503674008 1.417518587 0)
(-8.37795868338 1.50540317452 0)
(-8.16238526893 1.59254726298 0)
(-7.93905989465 1.67924651448 0)
(-7.70864830528 1.76582675117 0)
(-7.47173392163 1.85264526231 0)
(-7.22881012798 1.94006510795 0)
(-6.98027312734 2.02840987681 0)
(-6.72641993285 2.11790994587 0)
(-6.46745546979 2.20865505629 0)
(-6.20351162277 2.30056237265 0)
(-5.93467841385 2.39336847373 0)
(-5.66104095185 2.48665148552 0)
(-5.38272209886 2.57985672626 0)
(-5.09991401831 2.67236088689 0)
(-4.81290389365 2.76351596487 0)
(-4.52207514719 2.85271771755 0)
(-4.22789895871 2.93946383447 0)
(-3.93093213776 3.02341661039 0)
(-3.63181001813 3.10451517286 0)
(-3.33128273479 3.18314282464 0)
(-3.03025130508 3.26019376876 0)
(-2.7298160785 3.33747855321 0)
(-2.43116926282 3.41749188803 0)
(-2.13542764347 3.50351196485 0)
(-1.8449822975 3.59829599623 0)
(-1.55867853675 3.70535504439 0)
(-1.28632117359 3.82335902917 0)
(-1.01088760046 3.94951972667 0)
(-0.798668745301 4.06632536117 0)
(-0.4815089621 4.18271747233 0)
(-0.592396155127 4.21243541806 0)
(0.454959204212 4.35512315701 0)
(-2.96789801157 3.90227457823 0)
(8.0885292859 6.7955576602 0)
(-13.6042279641 5.28177438667 0)
(56.2834049553 -11.7179360256 0)
(-28.4770834452 -10.2407232368 0)
(2.98384126134 -12.6258159618 0)
(-3.68993417582 -9.28976545045 0)
(-3.83787973757 -8.04455067527 0)
(-3.85958592511 -7.04834676678 0)
(-4.06824657337 -6.26465205817 0)
(-4.309142111 -5.67085915488 0)
(-4.56771274261 -5.20830869511 0)
(-4.85265264096 -4.83217666767 0)
(-5.16252458469 -4.5130944072 0)
(-5.49110576088 -4.23126707098 0)
(-5.83170175176 -3.97326710447 0)
(-6.17806162217 -3.73028772216 0)
(-6.5245297379 -3.49681166474 0)
(-6.86614912895 -3.269550404 0)
(-7.19870216208 -3.0466631776 0)
(-7.51867917535 -2.82721371721 0)
(-7.82320811983 -2.61080579971 0)
(-8.10997230597 -2.39734693137 0)
(-8.37712954105 -2.18690236191 0)
(-8.62323869926 -1.97961056941 0)
(-8.84719625041 -1.77563894309 0)
(-9.04818302197 -1.57516438284 0)
(-9.22562121051 -1.37836815962 0)
(-9.37913857507 -1.18543796336 0)
(-9.50854319059 -0.996573749823 0)
(-9.61379573206 -0.811991588831 0)
(-9.69500702761 -0.63193544674 0)
(-9.75238931628 -0.456664802653 0)
(-9.7863321815 -0.286505921222 0)
(-9.79718457779 -0.121735323188 0)
(-9.7858017358 0.0370783462178 0)
(-9.75241699489 0.190559952073 0)
(-9.69810090001 0.34062491766 0)
(-9.62344327895 0.487456697909 0)
(-9.52918790413 0.63094454371 0)
(-9.41618947405 0.770742638358 0)
(-9.28537350876 0.906376436428 0)
(-9.13772544253 1.0373636747 0)
(-8.97428567225 1.16333347156 0)
(-8.79614633326 1.28411279677 0)
(-8.60444925069 1.39975854104 0)
(-8.40037562949 1.51054029306 0)
(-8.18512072402 1.61689787561 0)
(-7.95985849279 1.71939454674 0)
(-7.72570584063 1.81867483803 0)
(-7.48369196809 1.91542887494 0)
(-7.23473418446 2.01036238915 0)
(-6.97962097887 2.10416897047 0)
(-6.71900348223 2.19750022598 0)
(-6.45339571162 2.29093027471 0)
(-6.18318452463 2.3849120485 0)
(-5.90864785173 2.47973685375 0)
(-5.62998094331 2.57549722494 0)
(-5.34732942362 2.67206445702 0)
(-5.06081884069 2.76910880172 0)
(-4.77059715286 2.8660880344 0)
(-4.47685745291 2.96233866286 0)
(-4.17987622188 3.05710752856 0)
(-3.88002222058 3.14965715152 0)