/*--------------------------------*- C++ -*----------------------------------*\
| =========                 |                                                 |
| \\      /  F ield         | OpenFOAM: The Open Source CFD Toolbox           |
|  \\    /   O peration     | Version:  v1806                                 |
|   \\  /    A nd           | Web:      www.OpenFOAM.com                      |
|    \\/     M anipulation  |                                                 |
\*---------------------------------------------------------------------------*/
FoamFile
{
    version     2.0;
    format      ascii;
    class       volScalarField;
    location    "200";
    object      p;
}
// * * * * * * * * * * * * * * * * * * * * * * * * * * * * * * * * * * * * * //

dimensions      [0 2 -2 0 0 0 0];


internalField   nonuniform List<scalar> 
6400
(
0.249064014812
0.248748578212
0.248464140579
0.247922404931
0.246615881735
0.24460943652
0.24197986389
0.238853084085
0.235377034385
0.231702566763
0.227969132629
0.22429580071
0.220776859519
0.217481001303
0.214452992736
0.211716855087
0.209279749093
0.207135984335
0.205270760515
0.203663420937
0.202290118622
0.201125887169
0.200146163481
0.199327838919
0.198649931691
0.198093966414
0.197644143831
0.197287361348
0.19701314437
0.196813528973
0.196682933778
0.196618036324
0.19661766022
0.196682721765
0.196816325649
0.197023963155
0.197313582103
0.197695511425
0.198182242873
0.198787689601
0.199527059418
0.200417981836
0.201480395648
0.202735788131
0.20420696473
0.205917557934
0.207891279728
0.210150874177
0.212716679468
0.215604715726
0.218824239431
0.222374833182
0.226243324559
0.230401111942
0.234802244042
0.239382290232
0.244058419129
0.248731953244
0.253294138807
0.257633443738
0.261642714193
0.265225825451
0.268306671884
0.270841833745
0.27283127646
0.274313434249
0.275338023763
0.275959907101
0.276270372764
0.276406901629
0.276474402809
0.276489440634
0.27646328331
0.276431108699
0.276414252787
0.276420500162
0.276442173073
0.276466559141
0.276483925386
0.276493676919
0.24935588469
0.248931346963
0.248470805677
0.247879397418
0.246521117982
0.24444161239
0.241727676186
0.238519490609
0.234973563764
0.231245725835
0.227477430774
0.223787509826
0.220268471516
0.216986323155
0.213982749005
0.211278679326
0.208878423557
0.206773836043
0.204948115949
0.203379074494
0.202041760973
0.200910483554
0.199960257315
0.199167792251
0.198512097376
0.197974807639
0.197540301871
0.197195692061
0.196930721937
0.196737627081
0.196610989641
0.196547607882
0.196546318702
0.19660785903
0.196734931675
0.196932549051
0.197208628177
0.197574288383
0.198043006976
0.198628511239
0.199345649014
0.200211787912
0.201246085405
0.202469629823
0.203904936322
0.20557542087
0.207504718897
0.209715712584
0.212229156928
0.215061788539
0.218223921634
0.22171661148
0.22552869214
0.229633966205
0.233988838159
0.23853089426
0.243179421828
0.247838469886
0.252401824309
0.256758968412
0.260801655128
0.264432217545
0.267575997158
0.270192742013
0.272281173754
0.273862985848
0.274968913844
0.275657048098
0.276043587287
0.276272339488
0.276397149571
0.276433272328
0.276421941486
0.276399511109
0.276388916132
0.276401521676
0.276430599233
0.276462676663
0.276488918401
0.276508956738
0.250028433153
0.249263167277
0.248401537733
0.247246002967
0.245498261645
0.243139886231
0.240228675645
0.236892897254
0.233281241502
0.229541694959
0.225806958745
0.222186561067
0.218763778184
0.21559599694
0.212717287459
0.210142170047
0.207869819973
0.205888179472
0.204177656087
0.202714232891
0.201471938476
0.200424693275
0.199547607468
0.198817826693
0.198215017457
0.197721589002
0.197322743324
0.197006405813
0.196763081126
0.19658567971
0.196469406105
0.196411535675
0.196411172963
0.196469072594
0.196587649323
0.196772080998
0.197032749552
0.19738189139
0.197829040942
0.198386002952
0.199068761199
0.199894842881
0.200883545031
0.202055850278
0.203434138715
0.205041792703
0.206902636482
0.209040099552
0.211475952611
0.214228505153
0.217310249005
0.220725061713
0.22446510177
0.228507579136
0.23281191843
0.23731833418
0.24194848081
0.246608254059
0.251192040253
0.255588224127
0.259686381116
0.26338743404
0.266618849334
0.26934301954
0.271547171698
0.273230399293
0.274416590008
0.275193472991
0.27571142341
0.276056921898
0.276243679631
0.276315256906
0.276326820877
0.276317127253
0.276314993877
0.276338405934
0.276382680791
0.2764346436
0.276483190862
0.276522117072
0.250611859052
0.249296245642
0.247883190487
0.246095524027
0.243850715266
0.241132718465
0.237989397261
0.23452943993
0.230882969689
0.227180515417
0.223538320587
0.220050765086
0.216787685116
0.213795024447
0.211097502446
0.208702313677
0.206603149912
0.204784077678
0.203222980041
0.201894418978
0.200771868652
0.199829350298
0.199042543067
0.198389468453
0.197850841175
0.1974101899
0.197053826129
0.196770717066
0.196552298209
0.196392317901
0.196286646459
0.196233056667
0.196230996068
0.196281269058
0.196386220049
0.196551840643
0.196789802371
0.197109772591
0.19752021132
0.198034390669
0.198667474054
0.199436557531
0.200360595806
0.201460240669
0.202757602106
0.204275948304
0.206039296366
0.208071764758
0.210396525009
0.213034204187
0.216000646857
0.219304013021
0.222941299096
0.226894661155
0.23112834165
0.235586959002
0.240195643891
0.244862128314
0.249480441749
0.253937021771
0.258120122686
0.261930510157
0.26529657453
0.268169790414
0.270512501837
0.272311608691
0.273620792199
0.274574484935
0.275274098705
0.275732572272
0.275984936049
0.276103536877
0.276146419557
0.276156870773
0.276172504924
0.276215783545
0.276283162034
0.276362050715
0.276438335892
0.276503398704
0.249948809426
0.248330560724
0.246539912619
0.24426987575
0.241602640959
0.238561690626
0.235214192585
0.231661679699
0.228018244204
0.224395313363
0.220890087346
0.217579531462
0.214518448742
0.211740376104
0.209260185399
0.207077544906
0.20518064051
0.203549743655
0.202160364885
0.200985847416
0.199999355239
0.19917528214
0.198490164276
0.197923184615
0.197456381102
0.197074656872
0.19676566332
0.196519608218
0.196329032836
0.196188648238
0.196095107377
0.1960468106
0.196043694659
0.196086895554
0.196179175404
0.196327324074
0.196540238926
0.196826420764
0.197196067843
0.197661869299
0.198238529373
0.198942729982
0.199793002446
0.200809546412
0.202014019948
0.203429339153
0.205079453892
0.206988980759
0.209182491906
0.211683193118
0.214510760687
0.217678260552
0.221188365276
0.225029386489
0.229171715952
0.233565455037
0.238139618233
0.242803730555
0.247450966158
0.251966436434
0.256241065566
0.260174264208
0.26368483368
0.266703213899
0.269175955057
0.271116713419
0.272635102622
0.273823578426
0.274686862743
0.275245289058
0.275576061094
0.275752688981
0.275835279824
0.27587624498
0.275924244147
0.276000862436
0.276102257364
0.276216168448
0.276324809293
0.276420854932
0.247918550107
0.246226538417
0.244264283546
0.241707753018
0.238773762421
0.235527190813
0.232064597101
0.228489733454
0.224906636303
0.221410796003
0.218082153802
0.214981500943
0.21214964409
0.209608618727
0.207364205662
0.205409145971
0.203726580867
0.202293355004
0.201082925086
0.200067719001
0.199220891231
0.198517505014
0.197935229011
0.197454656587
0.197059362096
0.196735791929
0.196473063391
0.196262722372
0.196098496109
0.195976078728
0.195892932476
0.195848133171
0.195842195913
0.195876823698
0.19595501984
0.196082298938
0.19626633666
0.196515908472
0.19684131623
0.197254814765
0.197770642556
0.198405015446
0.199175982378
0.200103191631
0.201207662287
0.202511668951
0.2040387577
0.205813745512
0.207862395211
0.21021040149
0.21288137074
0.215893712329
0.219256649447
0.222965808458
0.226998750388
0.231311656715
0.235837141601
0.240486788284
0.245153191422
0.249723277356
0.25409051829
0.258141826013
0.261776444674
0.264917843552
0.267539551469
0.269709599084
0.27149212696
0.272877516257
0.273871106944
0.274540147955
0.274960010242
0.275204268249
0.27533529668
0.275419463787
0.275516920351
0.275643706592
0.275793880576
0.275954918316
0.27610404526
0.27623940919
0.244883553126
0.243219398001
0.241213515817
0.238534438112
0.235489177495
0.232168425132
0.228695072147
0.225177582221
0.221714485898
0.2183897791
0.215269950222
0.21240265527
0.209817000878
0.207525154183
0.205524898417
0.203802754916
0.202337298676
0.201102327175
0.200069609001
0.199211043925
0.198500182282
0.197913153503
0.197429116025
0.197030367915
0.196702242251
0.196432880917
0.196212958
0.196035402382
0.195895139783
0.195788837498
0.195714725928
0.195672483178
0.195663154947
0.195689043798
0.195753253916
0.195859219553
0.196013814051
0.196226654833
0.196507598026
0.196868435473
0.197322938104
0.197886869271
0.198577801296
0.199414774986
0.200417990381
0.201608747473
0.203009705459
0.204645273073
0.206541754234
0.208726806353
0.21122781793
0.21406893406
0.21726661991
0.220824533206
0.224727651136
0.228938397584
0.233392037975
0.238005403476
0.242672330239
0.247279350269
0.251717426638
0.255851756294
0.259571566296
0.262840855819
0.265692523644
0.268125578557
0.270108028796
0.271639377523
0.272765196318
0.273549059207
0.274064175706
0.274384555346
0.274574572891
0.274716257616
0.274880725999
0.275076937039
0.275294377558
0.275518970049
0.275721101166
0.275907904379
0.241187917607
0.239603380975
0.237632973629
0.23495176548
0.231919582366
0.228636936156
0.225245725393
0.221857558394
0.218567594396
0.215451676263
0.212566263882
0.209948789051
0.207618880702
0.205580414331
0.203824262726
0.202331510721
0.201076810286
0.200031522428
0.199166352044
0.19845330205
0.197866919484
0.197384925813
0.196988386862
0.196661600397
0.196391833215
0.196168998786
0.195985333986
0.195835107884
0.195714365885
0.195620659325
0.195552892704
0.195511218724
0.195497028748
0.195513049613
0.195562709723
0.195648324279
0.195775082533
0.195952580035
0.196190849314
0.196501146543
0.196896760644
0.197393060127
0.198007251838
0.19875785922
0.199664200846
0.200746260441
0.202025153999
0.203524005918
0.205268769714
0.207288430753
0.209613849708
0.212274922643
0.215295319963
0.218686616275
0.222440049852
0.226525820956
0.230881818266
0.235433962122
0.240074756604
0.244682976904
0.249145194096
0.253320010546
0.257121999781
0.260583573047
0.263660096739
0.266260904035
0.268383263643
0.270046939358
0.271294346737
0.272186557202
0.272796315041
0.273198080772
0.273458806358
0.27367688609
0.273928299278
0.274214443177
0.274520222382
0.274828405108
0.275098932721
0.275353433648
0.237105710879
0.235636367248
0.233756873125
0.231159894251
0.228232365319
0.225073801649
0.22183801795
0.218636855037
0.215562607998
0.212684911858
0.210052603223
0.20769510515
0.205624349929
0.203837262608
0.202318822575
0.201045524121
0.199988893736
0.199118669808
0.198405323224
0.197821761423
0.19734423836
0.196952631891
0.196630309082
0.196363786827
0.196142335262
0.195957600852
0.1958032788
0.195674835692
0.195569276548
0.195484903676
0.19542116204
0.195378519125
0.195358482982
0.195363847502
0.195398476903
0.195465507733
0.195566485891
0.195709848475
0.195907767581
0.196170304756
0.196510226587
0.196942663837
0.197484747183
0.198154769549
0.198971246771
0.199952537416
0.201117522888
0.202487169289
0.204086204675
0.205944158442
0.208094547676
0.210572303903
0.21340704603
0.216618344785
0.220202792265
0.224142569884
0.228375021627
0.23283689138
0.23741369835
0.241970372316
0.246406090727
0.250613544067
0.254542768692
0.258149933522
0.261327815229
0.264035523256
0.266263373101
0.268027812925
0.269369863257
0.270350233125
0.271042349473
0.271521376421
0.271863836063
0.272185281903
0.272547607101
0.272946503045
0.273363905852
0.273778636611
0.274136215454
0.27447763911
0.232870057926
0.231536461771
0.229784376809
0.227330809886
0.224571326212
0.221597787223
0.21857016078
0.215597576594
0.212769155911
0.210149204727
0.207780371077
0.205685531035
0.20387021272
0.202325493628
0.201031451932
0.199960965173
0.199083447472
0.198368059119
0.197786053561
0.197312148891
0.196925026242
0.196607210094
0.196344622862
0.196126053408
0.195942680397
0.195787699603
0.195656043344
0.19554415853
0.195449816934
0.195371926007
0.195310351734
0.195265784845
0.195239733358
0.195234734141
0.195254425002
0.195302252166
0.195379448233
0.195492930191
0.195653969668
0.195872270312
0.196160304682
0.196533284153
0.197008719904
0.197605192409
0.198340716245
0.199231875822
0.200294739993
0.201547260763
0.203011832729
0.204717435246
0.206698671157
0.208994552529
0.211639262055
0.214662879224
0.218064665301
0.221842609615
0.225928256739
0.230262536465
0.234726113673
0.239186080402
0.24357759611
0.247823372698
0.25179955105
0.255435211329
0.258654765873
0.261411126853
0.263689095964
0.265503170428
0.266894509582
0.26792554861
0.268671729767
0.269209421005
0.269644322767
0.270097105982
0.270595942717
0.271133073861
0.271688093857
0.272235296303
0.272700524561
0.273152309507
0.228671085596
0.227479693674
0.225874784306
0.223601281965
0.221049693223
0.218300290114
0.215514653093
0.212796629697
0.210231497899
0.207878436937
0.205774659532
0.20393742776
0.202366847174
0.201049153876
0.199960578051
0.199071502675
0.198350403867
0.197767019295
0.197294419855
0.196909955695
0.196595288592
0.196335860397
0.196120166851
0.195939095851
0.195785450218
0.195653651189
0.195539556923
0.195440334574
0.195354328675
0.195280900391
0.195220217959
0.195173172049
0.195141271589
0.195126666604
0.195132360646
0.195161753703
0.195217297052
0.195303746083
0.195430270632
0.195607019464
0.195846013706
0.196162824198
0.196575975061
0.197105158474
0.197768497858
0.198580763239
0.199554525855
0.200703875416
0.202047546351
0.203612863406
0.205434061791
0.207555139563
0.210012538217
0.212849919589
0.216065428843
0.219667816538
0.223579271344
0.227737936572
0.232038794391
0.236393756583
0.240714244777
0.244896855423
0.248831740944
0.252430208753
0.255618484211
0.258348170242
0.260602425519
0.262395538853
0.263770699063
0.264794944826
0.265549123249
0.266123030674
0.266648483736
0.267238400785
0.267894135407
0.268596830471
0.269318717052
0.27002773138
0.270624555976
0.271212856769
0.22464795395
0.223595880834
0.222145682062
0.220071372357
0.21774878059
0.215244648092
0.212718666866
0.210267313308
0.207971254272
0.205884374372
0.204038809594
0.202446838872
0.201103981186
0.199992638397
0.199086342595
0.198354221531
0.197765058039
0.197290294214
0.196905703445
0.196591854546
0.196333674621
0.196119533707
0.195940290756
0.195788579179
0.195658404234
0.195545005578
0.195444836779
0.195355545489
0.195275890781
0.195205583919
0.195145072178
0.19509543534
0.195058205223
0.195035258275
0.195029001357
0.195042393111
0.195078306713
0.195140140489
0.195235095572
0.195372795858
0.195564939604
0.195827797738
0.196181705398
0.196648511143
0.197247178463
0.19799062979
0.198887179337
0.199946614647
0.201183048038
0.202622454355
0.204297270061
0.206258322054
0.208541722137
0.211201231875
0.214228792259
0.217629362062
0.221328331799
0.225267452397
0.229397515693
0.233593327538
0.237776373669
0.241831102256
0.245646534408
0.249127971051
0.252200325773
0.254814700631
0.256954563826
0.258635888715
0.259906928005
0.260844065196
0.261534598269
0.262097692245
0.262692481155
0.26341759181
0.264245605188
0.265138110716
0.266053658233
0.266952078979
0.267702507596
0.268455846207
0.220892581462
0.219971591185
0.218675554752
0.216806797517
0.214720195043
0.212468442445
0.210206734934
0.208022626431
0.205991492634
0.204161643457
0.202560352209
0.201195451293
0.20005870453
0.199129759864
0.198380692661
0.197780633944
0.197299819709
0.196912297151
0.196597105498
0.196338274379
0.196123974478
0.19594528025
0.195795044619
0.195667197003
0.195556444727
0.195458409155
0.195369840046
0.195288695731
0.195214078657
0.195146035334
0.195085312194
0.195033205871
0.194991335932
0.194961456819
0.194945512452
0.194945791561
0.194964778755
0.195005020426
0.195071541747
0.195172559433
0.195319697213
0.19553003112
0.195826247033
0.196233316257
0.196772027784
0.197453910756
0.198282455843
0.199263876881
0.200407136274
0.201737844905
0.203285581438
0.205106531144
0.207232050977
0.209711346897
0.212533389229
0.215685311439
0.21916476287
0.222874434668
0.226788840555
0.230791621256
0.234777179768
0.238633279919
0.242249904728
0.245529805246
0.248396048192
0.250798601976
0.25272052766
0.254177366642
0.25522338025
0.255954736047
0.256476344935
0.256974597057
0.257615267447
0.258456142255
0.259450248101
0.260541858113
0.261666382853
0.262771913502
0.263691044425
0.264635132002
0.217458063592
0.216657375753
0.215509867713
0.213844100287
0.21199034294
0.209987653615
0.207984876547
0.20605963528
0.204281545606
0.202693127159
0.201317026346
0.200157186489
0.199202483686
0.198430934506
0.197814384147
0.197323057802
0.196929492006
0.196610903844
0.196349811745
0.196133626383
0.195953500589
0.19580287105
0.195676215159
0.195568403545
0.195474340252
0.19538959254
0.195310990904
0.195236743392
0.195166337076
0.195100236197
0.195039505195
0.194985666675
0.194940467399
0.19490562635
0.194882740016
0.194873392834
0.194879304343
0.194901906208
0.194943930106
0.195011831448
0.19511673832
0.195275991449
0.195514688419
0.195862170343
0.196342734279
0.196968084501
0.197736302657
0.198650835441
0.19971524688
0.200954744101
0.202394037815
0.204084597763
0.206051364634
0.20831990098
0.210930452432
0.213843855808
0.217080665352
0.220568969387
0.224239209193
0.227992492008
0.231720623936
0.235310987014
0.238653741794
0.241650844204
0.244224628181
0.246323613748
0.247928006756
0.249046295501
0.249731777704
0.2500860717
0.25020450127
0.25053082308
0.251225853295
0.252186645293
0.253329438602
0.254601322741
0.255920628002
0.257224218013
0.258304662755
0.259457073331
0.214368592465
0.213676231878
0.212668370318
0.211196954157
0.209565910526
0.207801594508
0.20604526043
0.204364097847
0.202821758953
0.201454917144
0.200281933232
0.199303476376
0.198506416855
0.197868227575
0.19736163388
0.196958729742
0.196634791884
0.196370499605
0.19615180169
0.195969192545
0.195816488605
0.195689141552
0.19558271731
0.195492866152
0.195414115422
0.195341450231
0.195271639081
0.195203186418
0.195136058826
0.195071322876
0.195010385581
0.19495505059
0.194907323781
0.194869069542
0.194841768165
0.19482639085
0.194823620347
0.194833388997
0.194856180589
0.194896244167
0.194963154562
0.195073272092
0.195254080966
0.195541503479
0.195965332375
0.196538919929
0.197253538226
0.198109668052
0.199105267078
0.200260858576
0.201595283076
0.203138473303
0.204943062441
0.207015721852
0.209410179535
0.212115067814
0.215111082367
0.218342731447
0.221735378693
0.22519402977
0.228611469587
0.231875726729
0.234877921863
0.237521198117
0.239729766236
0.24145231752
0.242670950023
0.24339989861
0.243709560656
0.24367242792
0.243138865069
0.242878239562
0.243424323752
0.244484958861
0.245760737323
0.247158969004
0.248601459623
0.250032394889
0.251214536122
0.252565173318
0.211626784565
0.211030743081
0.210151818784
0.208862224695
0.207439240318
0.20589773766
0.204370648626
0.202914665522
0.20158753827
0.200420233767
0.199427291629
0.198606781223
0.197944407491
0.197418056379
0.197002266419
0.196671369534
0.19640318559
0.196181881719
0.195996556695
0.19584040421
0.195710069422
0.195602720657
0.19551305525
0.195437829957
0.195372064029
0.195309676133
0.19524709887
0.195183340903
0.195118932783
0.195055703483
0.19499567375
0.194940640388
0.19489261271
0.194853400399
0.194824231499
0.194805487598
0.194797122152
0.194798184883
0.194807490879
0.19482660788
0.19486206691
0.194927326094
0.195052306648
0.195282235894
0.195652758865
0.196178226701
0.196841726085
0.197638596719
0.198563406926
0.199622190192
0.200847035155
0.202253472902
0.20389702125
0.205805574545
0.208003007556
0.210486137808
0.213229992548
0.216182174152
0.21926792499
0.222394201873
0.225455924073
0.228343278817
0.230950177685
0.233183513296
0.234972319325
0.236270063873
0.237082421982
0.237459036957
0.237474282393
0.23707305052
0.236235512292
0.235235178245
0.234996331997
0.235796784858
0.236987628541
0.238293999967
0.239626140123
0.240956976814
0.242043640777
0.243506920195
0.209220827268
0.208709463552
0.207947827704
0.206825253569
0.205593041473
0.204255915041
0.202938161266
0.201686269302
0.200552383157
0.199562080121
0.198726655647
0.19804228511
0.197494238808
0.19706152712
0.196721382983
0.196450544473
0.196227859492
0.196040903764
0.195881904098
0.195746759162
0.195635828903
0.195547145543
0.19547526716
0.195412416756
0.195353460256
0.195294522307
0.195233683601
0.195170881341
0.195107353639
0.195044993095
0.194985767476
0.194931503815
0.194884064271
0.194845115469
0.194815973322
0.194797336356
0.194788496208
0.194786692107
0.194789152708
0.194796097858
0.194810792491
0.194841519743
0.194919066504
0.195098027313
0.195418255889
0.195891784349
0.196497604223
0.197220315717
0.19806559755
0.199031218373
0.200144822012
0.201435163031
0.202937741441
0.204681145788
0.206682677864
0.208938058747
0.211419382686
0.214074252299
0.216828816626
0.219592229015
0.222262452012
0.224733536079
0.226904620907
0.228688403642
0.230021389328
0.230874073366
0.231310990251
0.231376357119
0.230999587774
0.230169455816
0.229094954506
0.227967643374
0.227171948695
0.227139189466
0.227683851473
0.228392264566
0.229096216221
0.229804127201
0.230311039193
0.23160608485
0.207129152113
0.206691714324
0.206035529603
0.205064135825
0.20400420558
0.202851674005
0.201722183651
0.200652588392
0.199689892323
0.198854744697
0.198155833868
0.197588146628
0.197137075098
0.196783215012
0.196507901016
0.196290416172
0.196105454356
0.195945535874
0.195807658469
0.19569053301
0.19559643676
0.195522641321
0.1954608003
0.195403135462
0.195345564105
0.195286038756
0.195224156954
0.195160689222
0.195097189425
0.195035612323
0.194977838696
0.19492552737
0.194880243349
0.194843305946
0.194815635295
0.194797451472
0.194787849984
0.194784666326
0.194785647871
0.194789708078
0.194796393266
0.194809451631
0.19485540892
0.194990991349
0.195259239179
0.195664945826
0.196203232514
0.196852351295
0.197614451412
0.198494846974
0.199509469301
0.200683962396
0.202048418254
0.203627376167
0.205432293351
0.207454886723
0.209664404039
0.212007749894
0.214412219075
0.216789703862
0.219042350688
0.221070177646
0.222779594721
0.224089827041
0.224951598098
0.225373184794
0.225473768019
0.225122888504
0.224341844989
0.22321216744
0.221987995969
0.220724186863
0.219448295651
0.218494307748
0.217948735609
0.217529330602
0.216962440746
0.216224799368
0.215196888549
0.215575518395
0.205325040176
0.204951648932
0.204389281404
0.203553046229
0.202646731659
0.201658789284
0.200696459068
0.199787702941
0.198974955782
0.198274472355
0.197692976769
0.19722492855
0.196856296317
0.196569854274
0.196354067282
0.196189040074
0.196036196978
0.195895487423
0.195772466206
0.19566959895
0.195585199809
0.195517398696
0.195458223634
0.195400643257
0.195341133378
0.195278949151
0.1952147163
0.195150027763
0.195086723702
0.195026571241
0.194971089008
0.194921555644
0.194879130653
0.194844785721
0.194819184923
0.194802141903
0.194792693903
0.194788832845
0.194788527457
0.194790362092
0.194793994131
0.194802234505
0.194833834283
0.194933697368
0.195150722404
0.195492805942
0.195961519941
0.196541281111
0.197225905923
0.19801848827
0.198932960901
0.199991485812
0.201218484033
0.202632420613
0.204238500451
0.206023454771
0.207953395867
0.209974409604
0.212015227658
0.213991168503
0.215810093843
0.217380123448
0.218615749009
0.219446165016
0.21985221379
0.219865118395
0.21949885034
0.218800517676
0.217648867248
0.216323883278
0.214900384716
0.213353827051
0.21163477159
0.209750469933
0.207855584134
0.205695904393
0.203082233796
0.199650657673
0.195201087587
0.19243783296
0.203779079151
0.203460945879
0.202981328974
0.202264669686
0.201493845007
0.200651043602
0.199835507654
0.19906714893
0.198384421111
0.197799722759
0.19731836454
0.196934810706
0.196635967024
0.196407234058
0.196248124993
0.196123865965
0.196000854006
0.19587880149
0.195766672417
0.19567066028
0.195590126245
0.195521913716
0.195460053331
0.19539903098
0.195335997644
0.195270606256
0.195204063113
0.195138685029
0.19507643271
0.195018744
0.194966556492
0.19492059077
0.194881588383
0.194850289132
0.194826840891
0.194810625053
0.194800384862
0.194794434203
0.19479171177
0.194791402204
0.194793901878
0.194801820008
0.19482766701
0.194904680402
0.195081019196
0.195373344846
0.195778754259
0.196286763045
0.196891284873
0.197594576472
0.19840819659
0.199350168907
0.200438969536
0.201686264395
0.203090620824
0.204633491627
0.206277864025
0.207969224027
0.20963817246
0.211204417763
0.212583339125
0.213692139415
0.214454872003
0.214827921215
0.214837846807
0.214453002554
0.213642332878
0.212517354701
0.211129117213
0.209606419546
0.207903220234
0.205951822785
0.203652455042
0.200847823596
0.197379627009
0.193025972377
0.187480330873
0.179565549956
0.168101542252
0.155732030361
0.20246172662
0.202190994912
0.201783758038
0.201171914551
0.200519458802
0.199803418378
0.199115546645
0.198468571352
0.19789751892
0.197411404289
0.197014514795
0.196701584164
0.196460562757
0.196278650793
0.196170843728
0.196073217253
0.195975612499
0.195873474121
0.195774376265
0.1956823876
0.195602056576
0.195530648576
0.195463329548
0.195396140692
0.195327387686
0.195257379425
0.195188649295
0.195123480054
0.195063180354
0.195008786103
0.194960419028
0.194918294375
0.194882952254
0.194854656299
0.194832980031
0.194817009423
0.19480550799
0.194797773446
0.19479295057
0.194790842064
0.194792595649
0.19480125335
0.194825118027
0.194891716114
0.195041098538
0.195289663173
0.195636521217
0.196074910091
0.196600238741
0.197214567451
0.197927331244
0.19875226644
0.199701715587
0.200780345478
0.201980096664
0.203277344395
0.204632340811
0.205990425142
0.2072846969
0.208440574575
0.209382037771
0.210034451998
0.210339625726
0.210306455636
0.209969713842
0.209107488105
0.207985058691
0.206514643584
0.204901980841
0.203118232379
0.201066975312
0.198632863403
0.195650643496
0.191839978258
0.186712948009
0.180070811202
0.170829231753
0.155883543093
0.128575888912
0.0669566849608
0.201344258725
0.201114115256
0.200769733953
0.200249028402
0.199699109265
0.199092835516
0.198515034371
0.197972107621
0.197496147938
0.19709318817
0.196766754797
0.196511917742
0.196317692314
0.196171727518
0.196102392416
0.196027870685
0.195951691881
0.195869494642
0.195782422297
0.195694426891
0.195611947465
0.195535257385
0.19546156067
0.195388262217
0.19531440028
0.195240579175
0.195168812412
0.195102741603
0.195044852475
0.194994935183
0.194951133874
0.194913454708
0.194882174059
0.194856841757
0.194836770582
0.194821011451
0.194808964359
0.194800352521
0.194794183334
0.194791033715
0.194792702892
0.194802990702
0.194825587329
0.194886128879
0.195015514429
0.19522675496
0.195520675029
0.19589342309
0.196342274977
0.196869424967
0.197482251628
0.198190112037
0.198999186725
0.199907306112
0.200900189845
0.201949747379
0.203014187494
0.204039334757
0.204961797461
0.205714149256
0.20622782533
0.20643699697
0.206322029107
0.205928984373
0.205100535548
0.204002694139
0.202503746917
0.20080895175
0.19896658395
0.196889900112
0.194461514966
0.191520344155
0.187847417145
0.18307247683
0.176524782916
0.167895179988
0.155737371613
0.136264670926
0.103379450626
0.0487956717749
0.200400010829
0.200204551779
0.19991432478
0.19947228119
0.199010496702
0.198498548135
0.198014920303
0.197560517951
0.197164939558
0.19683159488
0.196563442971
0.196355941953
0.196199050094
0.19608094322
0.196037370455
0.195982987963
0.195925771794
0.195858489334
0.195778604745
0.195693985953
0.195611164599
0.195531586401
0.195453831887
0.195376342858
0.195298827915
0.195222140493
0.195148072222
0.195080080684
0.1950233272
0.194977598457
0.194938986097
0.194906619624
0.194879644872
0.194857229259
0.194838687184
0.194823468519
0.194811707412
0.194802606342
0.19479550271
0.194791965072
0.194794530282
0.194806087541
0.194827553881
0.194883612027
0.194996170849
0.195174540232
0.195420388289
0.19573191118
0.196107938549
0.196550658883
0.197065217167
0.197656474932
0.198324575628
0.199060956917
0.199845857019
0.200647641647
0.20142334914
0.202120116654
0.202679586356
0.203042022775
0.20314387732
0.202940780363
0.202471980847
0.201758807532
0.200497852563
0.199083962487
0.197343877488
0.195456824924
0.193376528339
0.190999531413
0.188196199613
0.184774769234
0.180474513894
0.17488597411
0.167322803012
0.157286988999
0.143698534366
0.123756227375
0.0921338517189
0.0471080375635
0.199604453556
0.199438910094
0.199194908704
0.19882031067
0.198433727005
0.198002273056
0.197598662374
0.197219091984
0.196891066224
0.196615707465
0.196395540996
0.196226551992
0.196099107328
0.196003474873
0.195976583676
0.195935719274
0.195893447491
0.195833849546
0.195760053253
0.195680213928
0.19559975901
0.195520186707
0.195440986428
0.195361550297
0.195282127732
0.195203821363
0.195128475998
0.195059202022
0.195001494482
0.194957332213
0.194924541236
0.194898139454
0.194875595299
0.194856042138
0.194839091912
0.194825033057
0.194813781198
0.194804167456
0.194796611819
0.19479338482
0.194798430179
0.194809306995
0.194829820125
0.194881348907
0.194977982154
0.195126190559
0.195327831698
0.195582314947
0.195889436655
0.196250926599
0.196669330772
0.197144893805
0.197671991209
0.198236344384
0.198813708058
0.199370016848
0.199862088543
0.200239572128
0.200450769684
0.200441554075
0.20015410471
0.1995920718
0.198814172311
0.197574954708
0.196254190109
0.194488522394
0.192565454941
0.190491396571
0.188176409544
0.185511049538
0.182357429779
0.178520041156
0.173691161014
0.167456677326
0.159182927397
0.148162130004
0.134016362853
0.114804914457
0.0848669043686
0.045119767981
0.19893555088
0.198796681668
0.198591378377
0.198274239597
0.197951348685
0.19758814357
0.197252087088
0.196935415781
0.196663892372
0.196436697443
0.196255965992
0.196118489651
0.196014037498
0.195937262654
0.195918362577
0.195887319074
0.195852791642
0.195798523443
0.195730859343
0.195656689852
0.19558014343
0.195502498116
0.195423899343
0.195344417128
0.195264681159
0.195185977073
0.195110201877
0.195040179823
0.194980624343
0.194937259059
0.194908780276
0.194888156024
0.194870113708
0.19485334534
0.194838332777
0.194825752039