/*--------------------------------*- C++ -*----------------------------------*\
| =========                 |                                                 |
| \\      /  F ield         | OpenFOAM: The Open Source CFD Toolbox           |
|  \\    /   O peration     | Version:  v1806                                 |
|   \\  /    A nd           | Web:      www.OpenFOAM.com                      |
|    \\/     M anipulation  |                                                 |
\*---------------------------------------------------------------------------*/
FoamFile
{
    version     2.0;
    format      ascii;
    class       volScalarField;
    location    "200";
    object      p;
}
// * * * * * * * * * * * * * * * * * * * * * * * * * * * * * * * * * * * * * //

dimensions      [0 2 -2 0 0 0 0];


internalField   nonuniform List<scalar> 
6400
(
0.178106151787
0.177730327728
0.177379841038
0.177117374767
0.177170115324
0.177174016766
0.176702067212
0.17553970209
0.173878718095
0.171764296011
0.169272100574
0.166486373584
0.163492779779
0.160372348228
0.157197713681
0.154031214877
0.150924407726
0.147918538519
0.145045584618
0.142329560608
0.139787878375
0.137432628232
0.135271708494
0.133309774202
0.131549005833
0.129989710705
0.128630781129
0.127470036668
0.126504474827
0.125730445115
0.125143767116
0.124739833968
0.124513699197
0.124460197802
0.124574229457
0.124851206322
0.125287255411
0.125877458129
0.126613407332
0.127487266177
0.128493245242
0.129625035971
0.130876391689
0.132241344786
0.133714324783
0.135290222404
0.136964418576
0.138732781433
0.140591630956
0.142537669208
0.144567875711
0.146679368894
0.14886923751
0.151134348706
0.153471142668
0.155875426863
0.15834218505
0.160865417998
0.163438032247
0.166051792229
0.168697346501
0.171364333841
0.174041566719
0.176717282127
0.179379438591
0.182016028385
0.184615361195
0.187166263813
0.189658126733
0.19208071755
0.194423663295
0.19667537624
0.198820957342
0.200839035749
0.202699296483
0.204361851964
0.205768209354
0.206808473067
0.207327996858
0.207358230904
0.177884130374
0.177462344333
0.177274533273
0.177145574488
0.176943461125
0.176960936293
0.176554209723
0.175415989667
0.173732339834
0.1715789787
0.169046171391
0.166223894222
0.163200661493
0.160058564419
0.156870171156
0.153697060439
0.15058965946
0.147587956373
0.144722701229
0.142016810583
0.139486774307
0.137143950923
0.134995686716
0.13304624305
0.131297536706
0.129749715072
0.128401586583
0.127250938191
0.126294760732
0.125529404553
0.124950693149
0.124554013261
0.124334300393
0.124285973336
0.124403293293
0.124681510179
0.125117818837
0.125708306917
0.126446778908
0.127325599154
0.128336503339
0.129472414912
0.130726822567
0.132093667335
0.133567347461
0.135142746516
0.136815255225
0.138580767215
0.140435647686
0.142376664557
0.144400886622
0.14650554268
0.148687851604
0.150944823288
0.153273047012
0.155668473795
0.158126214934
0.160640367739
0.163203891963
0.165808546786
0.168444905946
0.171102451895
0.173769752512
0.176434705616
0.179084836164
0.181707612375
0.184290742331
0.186822392754
0.18929128043
0.191686556882
0.193997375535
0.196211997259
0.19831616044
0.200290600181
0.202108475897
0.203733326931
0.205113651548
0.206166853555
0.206773467298
0.20688984032
0.178227375698
0.177736106161
0.177321425413
0.177166185867
0.176873596572
0.1764868154
0.17574238235
0.174449953139
0.172653426224
0.170416435742
0.167828255401
0.164978382448
0.161952868632
0.158829932926
0.155677649028
0.152553065429
0.149502437529
0.146562163658
0.143760082361
0.141116877989
0.138647432654
0.136362032252
0.134267385404
0.13236745526
0.130664113913
0.129157639509
0.127847087059
0.126730558323
0.125805392455
0.125068273187
0.124515385169
0.124142446363
0.123944455556
0.123915547744
0.124050265378
0.124346546075
0.124802425542
0.125410447901
0.126162264581
0.127051376083
0.128070752163
0.129213570472
0.130473329703
0.131843922552
0.133319694413
0.134895492334
0.136566695819
0.138329222668
0.140179502687
0.1421144154
0.1441311881
0.146227254861
0.148400078358
0.150646941732
0.152964719537
0.155349642342
0.157797070751
0.160301298419
0.162855402288
0.16545115841
0.16807903634
0.170728280882
0.173387079774
0.1760428085
0.178682332963
0.181292342017
0.183859672286
0.186371558346
0.188815780828
0.191180656368
0.193454695462
0.195625882946
0.197680514236
0.199601340907
0.201364957095
0.202938813103
0.20427877853
0.205322367792
0.205965738677
0.206131693106
0.179034798386
0.178425893114
0.177835501027
0.177296578432
0.176645152324
0.175797420874
0.174631703618
0.173057485373
0.171075369106
0.168727156552
0.166084555981
0.163225731314
0.160227192411
0.157158428936
0.154079569699
0.151040713887
0.148082328415
0.145236232467
0.14252683528
0.139972410977
0.137586282938
0.135377854706
0.133353466411
0.131517085262
0.129870841981
0.128415434678
0.127150431159
0.126074485443
0.125185483258
0.12448066359
0.123956729808
0.123609741895
0.123434731073
0.123425881973
0.123578976177
0.123894987455
0.124369936757
0.124994230942
0.12576083919
0.12666268428
0.127692721082
0.128844093789
0.130110234992
0.131484954277
0.132962517566
0.134537712925
0.136205896847
0.137963012972
0.139805577292
0.141730623269
0.143735603817
0.14581824787
0.147976374374
0.150207668682
0.152509432289
0.154878319284
0.15731007846
0.159799321135
0.162339337122
0.164921978697
0.167537629592
0.170175269518
0.172822636171
0.175466473426
0.178092853523
0.180687533533
0.183236341786
0.185725476097
0.18814171187
0.190472569386
0.192706092225
0.194830276751
0.196832334244
0.198697333901
0.200405825886
0.201930580782
0.203235641104
0.204274304664
0.204943172684
0.205161678689
0.179905023575
0.179146703597
0.178244127658
0.177255136907
0.176136249074
0.174828745435
0.173254686869
0.171366526098
0.169166528547
0.16668800823
0.163986650561
0.16112556051
0.158167563862
0.155170149055
0.152183222027
0.149248488127
0.146399804991
0.143664022061
0.141062003389
0.138609655287
0.136318864607
0.134198303516
0.132254099007
0.130490368912
0.128909634222
0.127513130635
0.126301046452
0.125272691108
0.124426576045
0.123760569196
0.123271934681
0.122957010256
0.122810875981
0.122828436008
0.123007528396
0.123349135732
0.123847411421
0.124492043362
0.125276544038
0.126193926073
0.127237157145
0.12839931426
0.129673716561
0.131054041613
0.132534428402
0.134109564645
0.135774752161
0.137525943441
0.139359741462
0.141273356136
0.143264511555
0.145331301616
0.147471994363
0.149684790678
0.151967547069
0.154317477636
0.15673085513
0.15920273521
0.161726728374
0.164294845232
0.166897433232
0.169523221298
0.172159478331
0.174792263854
0.177406788461
0.179987778167
0.182519959129
0.184988421506
0.187378813997
0.189677788766
0.191872915162
0.193952121017
0.195903359515
0.197713640933
0.199367090641
0.200841544537
0.20210719324
0.203133548587
0.203811071242
0.204079554186
0.180422895436
0.179359900691
0.17816247319
0.176782929091
0.17524140797
0.173520058175
0.171583890348
0.169413407952
0.167017304396
0.164424871854
0.161679732542
0.158830860984
0.155927091308
0.153013401143
0.150129173964
0.147307689196
0.144576352146
0.141957289216
0.139468077906
0.137122481875
0.13493112469
0.132902071472
0.131041317071
0.129353180159
0.12784060713
0.126505401641
0.12534839528
0.124369569333
0.12356811058
0.12294254137
0.122490683178
0.122209211802
0.122093529631
0.122140004433
0.122349690764
0.122719688055
0.123241810285
0.123908536551
0.124712864616
0.12564767772
0.126705824203
0.127880235699
0.12916405927
0.130550789194
0.13203439099
0.133609410983
0.135271064202
0.137015292147
0.138838781688
0.140738936178
0.142713791447
0.144761871828
0.146881985365
0.149072962411
0.151333348005
0.153661063158
0.156053057613
0.158504982452
0.161010909627
0.163563131973
0.166152065234
0.168766263656
0.171392594159
0.174016462441
0.176622272119
0.179193730573
0.181714479718
0.184168611284
0.186540621686
0.188816313765
0.190982898621
0.193028133692
0.194940447725
0.196708218132
0.198318272784
0.1997526163
0.200983559794
0.201998141635
0.202675250392
0.202989794908
0.179993438642
0.178782059446
0.177414115073
0.175749982712
0.173888371124
0.171845793967
0.169626813179
0.16723649397
0.164691381095
0.16201865656
0.15925303997
0.156431953461
0.153592258508
0.150767998028
0.147989304695
0.145282060386
0.142668021611
0.140165182349
0.137788233536
0.135549038314
0.13345707947
0.131519855644
0.129743219432
0.128131652682
0.12668847931
0.125416024139
0.124315721851
0.12338819134
0.122633293692
0.122050198374
0.121637253842
0.121391546135
0.121309052699
0.121387375207
0.121628938763
0.12202901111
0.12257766909
0.123268495218
0.124094524151
0.125048579113
0.12612336615
0.127311619698
0.128606255778
0.130000525766
0.131488163732
0.133063520718
0.13472167789
0.136458529412
0.138270824552
0.140156158119
0.142112898873
0.144140048985
0.146237031188
0.148403406331
0.150638532975
0.152941183894
0.155309142328
0.1577388177
0.160224903185
0.162760124635
0.16533511335
0.167938358402
0.170556466535
0.173174246535
0.175775445399
0.17834283067
0.180858999732
0.183307331206
0.185671170897
0.187935483889
0.19008734503
0.192114181034
0.194004613846
0.195747849386
0.197332328838
0.198743600847
0.199951856199
0.20096243152
0.201637765441
0.201994717614
0.178631323677
0.177406228078
0.175973526134
0.17413831865
0.172071815363
0.169815682526
0.167406844859
0.164870681456
0.162232370447
0.15951899713
0.156759388402
0.153982431852
0.151215766806
0.148484799358
0.145812222187
0.143217870894
0.140718803917
0.138329506976
0.136062159472
0.133926922248
0.131932219331
0.130084995913
0.128390941303
0.126854667535
0.125479842647
0.124269288795
0.123225039724
0.122348367064
0.121639831285
0.121099276142
0.120725558159
0.120516182408
0.120467980893
0.120579829992
0.120854093849
0.121284920723
0.121861497467
0.122577872782
0.123427132402
0.124402005327
0.125495007902
0.126698623067
0.128005478872
0.129408525704
0.130901208054
0.13247762492
0.134132670885
0.135862147603
0.137662833825
0.139532500234
0.141469855009
0.14347441037
0.145546264546
0.147685797678
0.149893297825
0.152168531587
0.154510273224
0.156915862991
0.159380796508
0.161898397036
0.164459717497
0.167053286956
0.169665704614
0.172281224696
0.174883213202
0.177453707485
0.179974269474
0.182428122557
0.184797472879
0.187066350408
0.18922204975
0.191251359189
0.193142798308
0.194886022521
0.196469782957
0.197882571845
0.199088969864
0.200111277725
0.200791753404
0.201190027496
0.176561568002
0.175368994225
0.173928255756
0.172012921274
0.169842421159
0.167471095647
0.164960212178
0.162350169612
0.159673865259
0.156959489406
0.154232453717
0.151515908582
0.148830958243
0.14619668086
0.143630164648
0.141146565852
0.138759204346
0.136479693354
0.134318097487
0.132283106798
0.130382209931
0.128621856565
0.127007593707
0.12554416468
0.124235574004
0.123085132126
0.122095469453
0.121268493748
0.120605447792
0.120106807357
0.119771831312
0.11959842116
0.119584717442
0.119731530733
0.120039304619
0.120500937682
0.121106082165
0.12184897706
0.122722678341
0.123719738644
0.124832415894
0.126052879452
0.127373409838
0.128786596909
0.130285534803
0.131864008896
0.133516666651
0.135239161114
0.137028253394
0.138881858114
0.140799011409
0.142779748674
0.144824886677
0.146935697091
0.149113496773
0.151359182037
0.153672669417
0.156052401475
0.158494879901
0.160994157023
0.163542009165
0.166127018086
0.168736232674
0.171353338066
0.173961759371
0.176543239269
0.179078138329
0.181550417181
0.183941143731
0.186233146108
0.188414734287
0.190471678233
0.192392066045
0.194166001978
0.19578120922
0.197227612639
0.198462148868
0.199519211576
0.200219329477
0.200662861204
0.173958360453
0.172819197918
0.171405233898
0.169476240631
0.167279822497
0.164872915091
0.16233347262
0.159711561383
0.15704593253
0.154366168571
0.151695945519
0.149054881402
0.146459784447
0.143925382436
0.141464756387
0.139089588754
0.136810322607
0.13463628768
0.132575821689
0.130636392258
0.128824710129
0.127146828659
0.12560821621
0.12421379212
0.122967933561
0.121874463448
0.120936618516
0.120156959081
0.119537384227
0.119078938662
0.118781290942
0.118642921439
0.118663673857
0.118847010203
0.119188599499
0.119679796637
0.120313782222
0.12108404405
0.121983361309
0.123003993086
0.124137867698
0.125376785228
0.126712627097
0.128137569989
0.129644301527
0.131226233007
0.132877701454
0.134594148001
0.136372256967
0.138210039203
0.140106829517
0.142063177626
0.144080640833
0.146161434764
0.148307975392
0.150522413542
0.152805941801
0.155158235973
0.1575770529
0.160057170334
0.162591605963
0.165168787688
0.167777013315
0.170399300996
0.173019617735
0.175620137541
0.178179439
0.180683512536
0.183112407346
0.185447318026
0.18767984254
0.189794362454
0.191777254935
0.193619275258
0.195306094129
0.196825898171
0.198128124596
0.199249644106
0.199990950434
0.200491275818
0.170959751252
0.169890294402
0.168529405053
0.166635240953
0.164470313249
0.162088101305
0.159577126351
0.156992574431
0.154377079944
0.151761374116
0.149168370785
0.146615680356
0.144117466245
0.141685618309
0.139330468441
0.137061206663
0.13488613269
0.13281282664
0.130848282979
0.128999021999
0.127271176039
0.125670547703
0.124202632796
0.122872604449
0.121685268006
0.12064499254
0.119755626771
0.119020404515
0.118441864723
0.118021588411
0.11775976477
0.117655637994
0.117710215436
0.117927543571
0.118301799653
0.118823448487
0.119486879734
0.120285325959
0.121211303131
0.122256750506
0.123413229445
0.124672133073
0.126024905295
0.127463267863
0.128979454079
0.130566445833
0.132218207114
0.133929900212
0.135698063325
0.137520741128
0.1393975226
0.141329439292
0.143318786749
0.145368761505
0.147482899456
0.149664709322
0.151916771814
0.154240011356
0.156633842068
0.159093469677
0.161614086549
0.164183373438
0.166792023075
0.169422134753
0.172058404656
0.174684468901
0.177276080669
0.179823704976
0.18230689654
0.184703882034
0.187014234333
0.189220804826
0.191304529582
0.193256788437
0.19506056253
0.196699087898
0.198118478468
0.199345820933
0.200161636638
0.200743189024
0.16769433047
0.166704188665
0.165414101602
0.163588620271
0.161495428
0.159181116329
0.156740248273
0.154229649541
0.151694137975
0.149165117005
0.146665202833
0.144210936171
0.141814936922
0.139487317692
0.137236584587
0.135070192917
0.132994900541
0.131017007857
0.129142531118
0.127377326555
0.125727167722
0.124197776488
0.122794806315
0.121523781674
0.12039000704
0.119398449155
0.118553607191
0.11785940458
0.117319046056
0.116934668062
0.116706984886
0.11663600279
0.116723479066
0.116972985743
0.117378860452
0.117931228712
0.118624561972
0.119451883932
0.12040542263
0.121476772701
0.122657106005
0.123937388275
0.125308604941
0.126761997551
0.12828931212
0.129883057108
0.131536766991
0.133245260677
0.135004855985
0.13681355512
0.138671148182
0.140579092273
0.142540385166
0.144559239487
0.146640247356
0.148788336952
0.151007620659
0.153300049872
0.155667441278
0.158104614835
0.160610376617
0.163170566542
0.165779268754
0.168417447956
0.171070281935
0.173724463511
0.176351780695
0.178951646372
0.181505353257
0.183983788665
0.186396246849
0.18872540877
0.190945141663
0.193047863584
0.195015627958
0.196826742541
0.198426659467
0.199821023726
0.200763793125
0.20147187676
0.16427579462
0.163367798785
0.162158026584
0.160422723149
0.158427370476
0.156209867755
0.15386751513
0.151456238515
0.14902168329
0.146595371193
0.14419975117
0.141850793887
0.139560243239
0.137337127714
0.135188773505
0.133121470159
0.131140920693
0.129252556315
0.127461757639
0.125773999229
0.124194924575
0.122730356061
0.121386243699
0.12016856357
0.119083188634
0.118135731633
0.117331366111
0.116674712509
0.116169629195
0.11581872434
0.115623082042
0.115583530407
0.115702848363
0.115983621304
0.116420578325
0.117003594834
0.117726993475
0.118583558682
0.119565203135
0.120663158618
0.1218681973
0.123170853356
0.124561651212
0.12603134623
0.12757118253
0.12917316797
0.130830361451
0.132537185514
0.134289665933
0.13608566936
0.137925137084
0.139809875163
0.141743486709
0.143731270159
0.145778707193
0.147892136511
0.1500774956
0.15233711318
0.154676433328
0.157088441572
0.15957697197
0.162124723765
0.164729449011
0.167371614872
0.170036515934
0.172718256178
0.175384562836
0.178042154065
0.180680766979
0.183263379983
0.185793279517
0.188259271633
0.190645977989
0.192942271774
0.195129624601
0.197180321955
0.199036489764
0.200673589503
0.201817033891
0.202717574357
0.160796217812
0.159968870174
0.158842997223
0.157209794703
0.155327285019
0.153224079848
0.150997860017
0.148701880376
0.146381583891
0.144068064609
0.141783535759
0.139543601531
0.137359489924
0.135239569875
0.133190424942
0.131217600499
0.129326135877
0.127520945854
0.125807085036
0.124189909748
0.122675149727
0.121268898179
0.119977528877
0.118807558841
0.11776548657
0.116857609074
0.116089772768
0.115467278806
0.114994586079
0.114674628255
0.114508778644
0.11449903207
0.114649994015
0.114961722762
0.115428868714
0.116042098686
0.116795368836
0.117681153337
0.118691002107
0.11981576613
0.121045818661
0.122371274516
0.123782213912
0.125268920574
0.126822142592
0.128433384225
0.130095196974
0.1318015732
0.133548191939
0.135332664775
0.137155047609
0.139017418836
0.14092378822
0.142880719116
0.144894325858
0.146972186919
0.149122638842
0.151347180262
0.153656201589
0.156039075027
0.15850512539
0.161033618644
0.163625307687
0.166266104281
0.1689368622
0.171645646098
0.174365595422
0.177081758154
0.179790732243
0.182474648502
0.185129997069
0.187750787082
0.190328741249
0.192854907059
0.195312494362
0.197670715241
0.199867923583
0.201843580219
0.203301314861
0.204510240988
0.157326972447
0.15657636382
0.155534094421
0.154007987697
0.152245089585
0.15026497387
0.148164086897
0.145991863732
0.143792806221
0.141597095734
0.139426544984
0.13729641694
0.135217586955
0.133198009684
0.131243818329
0.129360126976
0.127551624629
0.12582300698
0.124179270979
0.122625885181
0.121168852216
0.119814677665
0.11857025886
0.117442717627
0.116439205767
0.115566694915
0.114831720887
0.114240213864
0.113797121535
0.113505694647
0.11336775665
0.113386717486
0.113569363609
0.113911827779
0.114407605626
0.115050301053
0.11583291443
0.116747460107
0.117785085853
0.118936257941
0.120190965506
0.121538931267
0.122969824514
0.124473491485
0.126040207901
0.127661003847
0.129327899811
0.131034447271
0.13277596726
0.134549648505
0.136355652763
0.138196315866
0.140075701447
0.142001973217
0.143981579609
0.146022872833
0.148137321102
0.150323936711
0.152598626222
0.154946082879
0.15737996381
0.159882894464
0.162449945678
0.165091504652
0.167772463597
0.170492013025
0.173238776707
0.176000875111
0.178772447276
0.181545794183
0.184319691072
0.187094642761
0.189870660697
0.19264559018
0.195408435976
0.198130498668
0.200749384457
0.203171894061
0.20510297284
0.206779459245
0.153922386873
0.153243239292
0.15228170149
0.150862797277
0.149220397755
0.147365788488
0.145393113462
0.143347322643
0.141271483601
0.139194470152
0.13713750519
0.135115445927
0.133138866398
0.131215442312
0.129351052579
0.127550612863
0.125818708959
0.124160058628
0.122579819842
0.121083758702
0.119678296542
0.118370456567
0.117167728329
0.116077876074
0.115108715972
0.11426787783
0.113562553183
0.112999258708
0.112583387597
0.112318572376
0.112207217975
0.112253722795
0.112465173823
0.112837199176
0.113361930559
0.114033546984
0.114844739428
0.115787165235
0.116851602975
0.118028155667
0.119306455048
0.120675870788
0.122125706003
0.123645424342
0.125224857015
0.126854630808
0.12852620916
0.130232704532
0.131969157589
0.133732105331
0.135521838145
0.137341088931
0.139193401332
0.141088953062
0.14303423998
0.145037477768
0.147113805254
0.149258103317
0.151490924161
0.153797791103
0.156186016574
0.158668934871
0.161211326082
0.163825055947
0.166493713531
0.169208853385
0.171961401159
0.174743539876
0.177551809406
0.180385533743
0.183249303695
0.186151662499
0.189102839045
0.192111571044
0.195177499406
0.19828050224
0.201362463629
0.204303301522
0.206813552218
0.208985542991
0.150623083051
0.150009387949
0.149124023842
0.147809059606
0.146283973082
0.144552764176
0.142706595446
0.140785623251
0.138831182846
0.136870544809
0.134924172841
0.133006423421
0.131127567375
0.129295074717
0.127514703452
0.125791342731
0.124129663442
0.122534589508
0.121011603533
0.119566901715
0.118207420915
0.116940762888
0.115775038178
0.114718656254
0.113780081588
0.112967575227
0.112288951806
0.111751309864
0.111360501089
0.111120554755
0.111034509325
0.1111075324
0.11134624549
0.111746635877
0.112299535097
0.11299909353
0.1138376985
0.114806661414
0.115896407069
0.117096696193
0.118396830068
0.119785872544
0.121252807102
0.122786796585
0.124377229066
0.1260144613
0.127689356862
0.129394574881
0.131125109806
0.132876560421
0.134649365712
0.136446962388
0.138271524856
0.140135562582
0.142045427238
0.144007726446
0.146041442442
0.148139800362
0.150318897567
0.152592558637
0.154935085492
0.157365858191
0.15986946392
0.162442505901
0.165074497497
0.16775664185
0.170481640559
0.173244661885
0.176045367116
0.178888464405
0.18178493278
0.184751786501
0.187810287811
0.190982219815
0.194280916762
0.197699579897
0.201181976334
0.204562134588
0.207546808276
0.21008005198
0.147458694761
0.14690418108
0.146089431186
0.144872932997
0.143459277285
0.141846279272
0.140121716491
0.138320898593
0.136483279421
0.134634326583
0.132793617753
0.130974918545
0.129188177414
0.127440699745
0.125738214224
0.124085706816
0.122488068526
0.120950558004
0.119479090864
0.118080373662
0.116761908822
0.115531898298
0.114399070955
0.113372462429
0.112461161308
0.1116740371
0.111019518862
0.11050528397
0.110137572622
0.109920664759
0.10985836034
0.109956917444
0.110221754029
0.110649449993
0.111229364311
0.111955504669
0.112819946182
0.113813647244
0.114926680611
0.116148483901
0.117468044599
0.118874179815
0.120355582088
0.121901244051
0.123500038482
0.125142274182
0.126818159847
0.128519821091
0.130242662662
0.131981011696
0.133735301343
0.135510042355
0.137305049145
0.13913526015
0.141007250579
0.142925662851
0.144909010881
0.146968334453
0.149094837501
0.151306323862
0.153596106572
0.15596648155
0.158409294398
0.160917543363
0.163482120359
0.166094314438
0.168747369406
0.171437809096
0.174167163743
0.176943255242
0.179781386358
0.182704671461
0.185742753744
0.188927702824
0.192283003567
0.195809019981
0.199413936585
0.202849134927
0.206319810321
0.210215259418
0.144450260385
0.143948709078
0.143198519407
0.142073675179
0.140763909573
0.139261954317
0.137651994366
0.135964617708
0.13423735885
0.132493768507
0.13075246202
0.129026546165
0.127325629906
0.125656879321
0.124026055932
0.122438325474
0.120898886504
0.119413409924
0.117988302306
0.116630814472
0.115349024725
0.114151725411
0.113048238125
0.112048190035
0.111161262987
0.110396902573
0.109764129177
0.109271147865
0.10892443022
0.108728404669
0.108688201024
0.108812190114
0.109102501647
0.109556038614
0.11016137
0.110912297841
0.111800576863
0.112816772133
0.113950581085
0.115191144307
0.116527126786
0.117947190198
0.119439702375
0.120993715261
0.122597371765
0.124241272876
0.125914954638
0.127609812011
0.129322253389
0.131044888213
0.13277773781
0.134526939136
0.136289307887
0.138082351691
0.139913455649
0.141792132781
0.143727403893
0.145725704702
0.147794596063
0.149940314351
0.152160713124
0.154453496991
0.156811573277
0.159226112669
0.161687097696
0.164184778172
0.166711304529
0.169262212777
0.17183798876
0.174445463273
0.177098986092
0.179820941711
0.182640684985
0.185589713966
0.188686780081
0.191907577363
0.195030446887
0.198040876817
0.201649137764
0.207693394213
0.141612252799
0.141157697137
0.140465876202
0.139425175425
0.138210867683
0.136811641719
0.135308021071
0.133726116815
0.132101586685
0.130456023183
0.128807052023
0.127167081125
0.125545372992
0.123948972211
0.122383713123
0.120854990598
0.119368357183
0.117929929611
0.116546620345
0.11522621924
0.113977357193
0.112809380321
0.111732159227
0.110755865206
0.109890730827
0.109146748867
0.108533489269
0.108059605773
0.107731728701
0.10755463446
0.107535495804
0.107685820106
0.108001363124
0.108477551744
0.10910608674
0.109879599697
0.110789322176
0.111825347484
0.112976946893
0.114233036789
0.115581896042
0.11701218832
0.118511786145
0.120070193284
0.121674441615
0.12331588276
0.124983456153
0.126667374298
0.128365590324
0.130068505497
0.13177530306
0.133495228611
0.135223751401
0.136979177871
0.138773808749
0.140599222959
0.142477235134
0.14441404919
0.146415131772
0.148483857244
0.1506183163
0.152813507124
0.155060769196
0.157349008822
0.159665825136
0.161998775642
0.164336755564
0.166671254244
0.168997464492
0.171315100456
0.173628741822
0.17594728372
0.178281574463
0.180637961087
0.183001716718
0.185291595931
0.187155408133
0.188286378298
0.188764472645
0.192508477652
0.138954251595
0.138541083318
0.137901539685
0.136937228184
0.135809607101
0.134504266652
0.133098097665
0.131613054014
0.130083015305
0.12852763236
0.12696355648
0.125402483376
0.123853334149
0.122323045536
0.120817547507
0.119342486081
0.117903781234
0.116507994625
0.115162527631
0.11387567745
0.112656585223
0.111515103748
0.110461607101
0.109506768294
0.108661324185
0.10793579718
0.107340248325
0.106883678705
0.106572948056
0.106413504164
0.106414272649
0.106587535698
0.106926644227
0.107424413441
0.108074212656
0.108867932114
0.109796358535
0.11084916215
0.112015110546
0.1132830794
0.114640769546
0.116077124164
0.117579146916
0.119137427922
0.120737425462
0.122371611951
0.124028465426
0.125696172018
0.127374888177
0.129053084617
0.130729987533
0.132417747473
0.134119505228
0.135831524651
0.137572121877
0.139344691412
0.141161125999
0.14302866206
0.144951473301
0.146930403421
0.148961659224
0.151037412431
0.153146146032
0.155273513162
0.157403378969
0.159518861278
0.161603275548
0.163640785909
0.165616575406
0.167516242564
0.169323914503
0.171018083875
0.172563095052
0.173891575487
0.17486670586
0.175187133906
0.17420336543
0.169448808425
0.153802296881
0.100319969977
0.136482223011
0.136105253412
0.135512155249
0.134616552624
0.133566896252
0.132346510304
0.131028749729
0.129631772579
0.128187815559
0.126714647982
0.125227995462
0.123738850296
0.122255807662
0.120785707112
0.119334583332
0.117908333932
0.116513233987
0.115156262713
0.113845268622
0.112589002756
0.111397054883
0.110279718944
0.109247806827
0.10831242981
0.107484767195
0.106775818651
0.106196106847
0.105754983647
0.105459723542
0.105316797807
0.105336522095
0.105529822289
0.105890286973
0.106408189696
0.107077054896
0.107888242757
0.108832228364
0.109898403255
0.111074799155
0.112350603842
0.113712549728
0.115150346753
0.116649623987
0.118202798385
0.119793375858
0.12141489282
0.123055510428
0.124700360589
0.12635327755
0.128003618251
0.129653822273
0.131309111699
0.132965237369
0.134630994523
0.136316736494
0.138029534666
0.139777987389
0.141567980789
0.143401644325
0.145276947067
0.147187128242
0.149120922322
0.151063054028
0.152994970133
0.154895652548
0.156742297065
0.158510669027
0.160174882973
0.161706265031
0.163070750831
0.164223848977
0.16510132672
0.165601931605
0.165554425837
0.164652015526
0.162313452739
0.157410792833
0.147216001472
0.123710847325
0.0742004451625
0.134199527103
0.133854001119
0.133301872423
0.132467584636
0.131487483531
0.130343342781
0.129105125638
0.127787572594
0.12642143462
0.125022690179
0.123606212451
0.122182315326
0.12075929137
0.119343890657
0.11794225091
0.116560505092
0.115205251736
0.113883840409
0.112604506182
0.111376383139
0.110209432301
0.109114308527
0.108102182528
0.107184531226
0.106372918396
0.105678791202
0.105113150468
0.104685709454
0.104404170533
0.104276331278
0.104313996312
0.104525225973
0.104905010184
0.105440919057
0.106126290215
0.106951826193
0.107907771343
0.108983555611
0.110165945221
0.111445074878
0.112806194909
0.114240437762
0.11573162692
0.117274370798
0.118849997291
0.120452334053
0.122070144595
0.123687037702
0.125309523091
0.126935774313
0.128548575173
0.130159650597
0.131768958313
0.133382676451
0.135009263806
0.136656072588
0.138329542057
0.140033232953
0.141766520281
0.143524016766
0.145295288549
0.147065048244
0.148813640397
0.150517643425
0.152150402991
0.153682270569
0.15508029824
0.156307069046
0.157318196566
0.158057745673
0.158450284083
0.158387250756
0.157703349711
0.156134917404
0.153244589616
0.14828362004
0.139930712738
0.125867652517
0.101149448103
0.060824383628
0.132107641079
0.131789241238
0.131273020255
0.1304930757
0.129574601818
0.12849842377
0.127331289857
0.126084900578
0.124788689294
0.123456953796
0.122103804335
0.120738912136
0.119370295461
0.118004619739
0.11664811579
0.115307123682
0.113988520203
0.112699964762
0.111450006096
0.110248079746
0.109104431605
0.108029990304
0.10703620124
0.106134833148
0.105337780953
0.104656925379
0.104103739656
0.103688149194
0.103418068657
0.103303347847
0.103358615036
0.10358623088
0.103983388849
0.104534854974
0.105233845012
0.106070200729
0.10703388878
0.108115060997
0.109298403211
0.110575911488
0.111930972586
0.113356510335
0.114834324166
0.116360663524
0.11791477953
0.11949003004
0.121077892559
0.122669432982
0.124258794985
0.125842897263
0.127415241159
0.128978698438
0.130535757785
0.132091886956
0.133654127794
0.135228704971
0.136819831409
0.138428214725
0.140049892032
0.141675669323
0.143290996477
0.144876210475
0.146406985663
0.147854786057
0.149187107412
0.150367271831
0.151353501347
0.152096913749
0.152537923722
0.15260023864
0.152181122052
0.15113570514
0.149251586393
0.146207468841
0.141505147252
0.134360215869
0.123517956766
0.107043965952
0.081501861392
0.0461395073756
0.130206729921
0.129911550675
0.129426610727
0.128694536131
0.127830339742
0.126814393105
0.125710428584
0.124527471052
0.123293807885
0.122022176774
0.120726024335
0.119414420749
0.118095141304
0.11677476888
0.115459611904
0.114156181435
0.11287157922
0.111613706495
0.110391346532
0.109214149319
0.108092554449
0.107037672593
0.106061133747
0.105174914638
0.104391168488
0.103722169333
0.103179803435
0.102773976141
0.102512811233
0.102409599185
0.102483873726
0.102727433367
0.103138388113
0.103702176926
0.104411392557
0.105254549958
0.106221076229