/*--------------------------------*- C++ -*----------------------------------*\
| =========                 |                                                 |
| \\      /  F ield         | OpenFOAM: The Open Source CFD Toolbox           |
|  \\    /   O peration     | Version:  v1806                                 |
|   \\  /    A nd           | Web:      www.OpenFOAM.com                      |
|    \\/     M anipulation  |                                                 |
\*---------------------------------------------------------------------------*/
FoamFile
{
    version     2.0;
    format      ascii;
    class       volScalarField;
    location    "200";
    object      pa;
}
// * * * * * * * * * * * * * * * * * * * * * * * * * * * * * * * * * * * * * //

dimensions      [0 2 -2 0 0 0 0];


internalField   nonuniform List<scalar> 
6400
(
-0.0950268144722
-0.147345456403
-0.226929838562
-0.289559027256
-0.289391096294
-0.233789643323
-0.144909443655
-0.0445992608196
0.0464620137302
0.12888787802
0.204312073145
0.270761391561
0.326088507893
0.369831677637
0.402815135186
0.426312986077
0.441626913943
0.449976389105
0.452495457759
0.450221054414
0.444074638241
0.434846531754
0.423194682804
0.409659086304
0.394680176395
0.378623226797
0.361792447883
0.344448936274
0.326815336571
0.309091123415
0.291460742338
0.274138745989
0.257436848604
0.241895570386
0.227929741415
0.21360886618
0.188706989615
0.145338489457
0.0840822700555
0.0111050594797
-0.0683570500008
-0.151357849578
-0.236428295425
-0.322679185989
-0.409402970824
-0.495979773883
-0.581866986221
-0.666588223894
-0.749708979495
-0.830817538538
-0.909497755173
-0.985316303082
-1.05780033659
-1.12643443915
-1.19064911784
-1.24983251134
-1.3033373993
-1.3505126417
-1.39073276845
-1.42344745668
-1.44822756561
-1.46481983385
-1.47319129532
-1.47356717187
-1.46644964746
-1.452617475
-1.43310085073
-1.40913467236
-1.38208332294
-1.35336126299
-1.32428638178
-1.29603090481
-1.26923778156
-1.24435819017
-1.22008704338
-1.19680140994
-1.16897839347
-1.14782423036
-1.1161451702
-1.15415130045
-0.219007506019
-0.311829629334
-0.355150740364
-0.381206430959
-0.339340120107
-0.194121312569
0.0419507298468
0.32102703823
0.64055104374
0.997106063225
1.38268481331
1.78724149399
2.20130499017
2.61732012815
3.02970905178
3.434345032
3.82813584181
4.20876649546
4.57458763445
4.92447988913
5.25774901587
5.57399169756
5.87301493572
6.15475238955
6.41922823315
6.66651474996
6.89671634467
7.10994655278
7.30631800961
7.48593280309
7.64887418068
7.79519606304
7.92491536975
8.03820817342
8.13698548949
8.22999183459
8.33679051431
8.45502618815
8.56532115283
8.65859625867
8.73318737174
8.78850874748
8.82361769608
8.83749174548
8.82921905483
8.79804715944
8.74333437603
8.66454709288
8.56123748572
8.43305358994
8.27973203221
8.10110858532
7.8971279998
7.6678645968
7.41355945725
7.13466055155
6.83188913533
6.50629593039
6.15934031483
5.79293914722
5.40952251958
5.01203578061
4.60392769511
4.18906906213
3.77164668729
3.35599178453
2.94639434258
2.54687663922
2.16098533948
1.79156489169
1.44061429879
1.10906540618
0.79693630871
0.502785466713
0.225468991419
-0.0391921127706
-0.285765493421
-0.524071356047
-0.683395339698
-0.885667586668
-0.284512705359
-0.34974244543
-0.35743429846
-0.342435872048
-0.309957798817
-0.239272389084
-0.133143663985
-0.00327146045324
0.14117794094
0.292547826931
0.443750344251
0.588525969436
0.721769611161
0.83997968413
0.941294872288
1.02508681209
1.09148404618
1.14107752871
1.17476409005
1.19365090916
1.19895843591
1.19194170753
1.17382504535
1.14577001291
1.10885624195
1.06408155188
1.01236247539
0.954542327036
0.891396418218
0.823640206746
0.751936093454
0.676885337712
0.598956196431
0.517944852581
0.431050156764
0.329137555573
0.210156670355
0.0903452039355
-0.0188684795451
-0.117690371555
-0.207751819129
-0.289143555371
-0.361246357035
-0.423376630948
-0.4749337557
-0.515445654363
-0.54459957335
-0.562281677766
-0.568590168244
-0.563848522736
-0.548604344145
-0.523633534866
-0.489939225284
-0.448754144941
-0.401540859459
-0.34998822416
-0.296002428844
-0.241682406834
-0.189281627468
-0.141142012705
-0.0996077238857
-0.0669077117713
-0.045023909677
-0.0355428327101
-0.03951625437
-0.0573363951081
-0.0886515017373
-0.132329191804
-0.186475246319
-0.248538376949
-0.315423701545
-0.383858676832
-0.450408798263
-0.512856990825
-0.568346251804
-0.620179157871
-0.658073593124
-0.7037318069
-0.640167222477
-0.778287554779
-0.412065874677
-0.360426536631
-0.393838083279
-0.405892135798
-0.334396957103
-0.231824717624
-0.113042855348
0.0239764696244
0.1730807862
0.327347414735
0.483076837236
0.637936953613
0.789770291249
0.936937884164
1.07864126216
1.21472323748
1.34533728208
1.47074872033
1.59127671216
1.70726818209
1.81907602754
1.92702689223
2.03140611594
2.13244881703
2.23034725986
2.32525671984
2.41730647942
2.50660503797
2.59324457645
2.67730199058
2.75882436388
2.83783073753
2.91427067109
2.98843401614
3.06170366707
3.13865797349
3.20697354777
3.26053904304
3.30396725725
3.33818464679
3.36150059505
3.37272591932
3.3714467965
3.35753768197
3.33095678453
3.29176047325
3.24012690911
3.17636861641
3.10092570682
3.01436371265
2.91736582676
2.81072739513
2.69534765507
2.57221821071
2.44240854888
2.30704096819
2.16726024618
2.0241872836
1.87886818958
1.73221034726
1.58492426768
1.43746826639
1.2900193823
1.14246973879
0.99446828795
0.845500428902
0.695015751277
0.542580906562
0.388073231729
0.231849461458
0.0750102420234
-0.0805800839716
-0.23165638026
-0.374696891694
-0.502433313041
-0.613343949954
-0.683861668067
-0.741894764103
-0.607449008398
-0.7805687688
-0.638857317094
-0.281130247029
-0.384746686533
-0.387382953826
-0.232413985053
-0.0924413614435
0.0167548298036
0.122427209354
0.227736483131
0.328843668077
0.425291245043
0.517451144926
0.604744567143
0.686246585831
0.761306976135
0.829569579252
0.890807341683
0.944851038945
0.991593961761
1.03100767949
1.06313428602
1.08807046241
1.10594858626
1.11692696542
1.12118191492
1.11890514077
1.1102993463
1.09557535169
1.07494790509
1.04862969107
1.01683115185
0.97973973868
0.937530817063
0.890141662383
0.837345648263
0.779353460973
0.725891859613
0.678429230521
0.638192809623
0.605958783038
0.581367162239
0.563865898126
0.553091668506
0.548681678054
0.550123172823
0.556740922021
0.56773284855
0.582197545647
0.599155289282
0.617568865843
0.636364631734
0.654457292102
0.670772777228
0.68427641329
0.693998305643
0.699064807321
0.698724983995
0.692379528714
0.679597989756
0.66012953042
0.633893285035
0.60095467636
0.561480073967
0.515681921437
0.463756955782
0.405833963461
0.341941664835
0.272002913301
0.195882417243
0.113435073152
0.0247120052651
-0.0700751793339
-0.169701150156
-0.273208686873
-0.374923869338
-0.476532556899
-0.549147065502
-0.634814614672
-0.477491971967
-0.757811940666
-0.822061458424
0.00163792843293
-0.267333009239
-0.252728074616
-0.0508640021455
0.0734370826389
0.1422553158
0.204832811843
0.26761242694
0.328466387054
0.388766795599
0.449859797306
0.511542551269
0.572987449616
0.633454741538
0.692385175147
0.749326528093
0.803909277041
0.855860312122
0.905007065651
0.951266283885
0.994623172193
1.03511407619
1.07281239995
1.1078211783
1.14026742323
1.17030002442
1.19808755823
1.22381801547
1.24769817163
1.26995705114
1.29085506381
1.31073190242
1.33007715156
1.34928590421
1.36544578116
1.37555492245
1.37912939842
1.37643777015
1.36798080634
1.3540527783
1.33491376641
1.31101429959
1.28297059557
1.25146147872
1.21717014668
1.18075725896
1.14283334125
1.10392959795
1.06446897911
1.02474776411
0.984921998536
0.945006343576
0.90487681678
0.864285915244
0.822881533774
0.780238526831
0.735894101225
0.689393658729
0.640336410313
0.588422748098
0.533490826711
0.475540778923
0.414736769976
0.351387777
0.285906289051
0.218755679805
0.150387221252
0.0812064050749
0.0115048666714
-0.0584429210188
-0.128613762864
-0.198416226774
-0.268594562464
-0.335276859861
-0.405661255967
-0.449375125877
-0.530856600073
-0.315788092746
-0.704833882707
-1.00449787237
0.437390555714
-0.0777766069501
-0.0476361883674
0.147796765057
0.214378651657
0.228935454853
0.246930297402
0.270669339847
0.297782667295
0.329517822105
0.366357970428
0.407287605106
0.450863783709
0.495784637566
0.540947930843
0.585407635588
0.628361230521
0.669147951899
0.707239812108
0.742222346304
0.77377437736
0.801648805593
0.825658457616
0.845664738082
0.861570091913
0.873311961172
0.880858521171
0.884205338251
0.883372934176
0.87840535271
0.869366241597
0.856322826614
0.839321383773
0.818686249452
0.797573106798
0.777338803962
0.758416991501
0.741272185027
0.726293518568
0.713555952279
0.702852066589
0.693852676287
0.686187676328
0.679460079043
0.673262615287
0.667204880981
0.660937834217
0.654163009451
0.64663354055
0.638144145987
0.628518975982
0.617591712636
0.605187149197
0.59109891814
0.575073629855
0.556797338195
0.535894783412
0.511938009893
0.484472521928
0.453055527035
0.417308389089
0.376972724639
0.33196506202
0.282417081737
0.228694325631
0.171390855484
0.111287463455
0.0493196830387
-0.0135311763626
-0.0761808662024
-0.137814115512
-0.197039290035
-0.254354160684
-0.305216372902
-0.359476319558
-0.381858507011
-0.458819935831
-0.16749941657
-0.659179295437
-1.18891866161
1.00038583268
0.129558456318
0.166214407329
0.308651668604
0.301036184965
0.268252939416
0.254174813186
0.253055080849
0.261411479936
0.279310252868
0.305802892206
0.338983559813
0.37692651506
0.417990697188
0.460802935903
0.504215553339
0.547282792916
0.589240807758
0.629483472158
0.667538264039
0.70304312192
0.73572717959
0.765394459768
0.791911756891
0.815199367979
0.835224744494
0.851998102025
0.865569926198
0.876029461883
0.883507194043
0.888170325472
0.890240838188
0.889928186686
0.887427375679
0.881804939487
0.872602935109
0.859954375654
0.844248455686
0.825993341939
0.80570548865
0.783871476456
0.760967983255
0.737461413189
0.713777301636
0.690268247273
0.667199309313
0.644742655735
0.622980732204
0.601911420978
0.581460112246
0.561491394881
0.541823825418
0.522239762776
0.502494350209
0.48231723794
0.4614125882
0.43945386437
0.416080779923
0.39089864515
0.363487879647
0.333425715083
0.300322400138
0.263871268691
0.223902243172
0.180434273587
0.133713431562
0.0842165251512
0.032657183489
-0.0201118768116
-0.0730222465983
-0.125234961392
-0.175205301692
-0.223587088957
-0.265205433708
-0.312119462483
-0.323006711968
-0.406793480031
-0.0406373969112
-0.633140908767
-1.36995092747
1.67155929891
0.318970454114
0.367398488947
0.429278999075
0.352998377103
0.288120185074
0.254584764391
0.239351463863
0.238107374026
0.249474568856
0.271191153244
0.30069487453
0.335752039461
0.374519458641
0.415472064997
0.45735170979
0.499131052151
0.539978017924
0.57922394104
0.616335145659
0.650889639865
0.682556682183
0.711080605354
0.736267532368
0.757975649583
0.776107799585
0.790606290655
0.80144921367
0.808648380039
0.812247423373
0.812324699488
0.808999175985
0.80249358652
0.793264249542
0.782024434793
0.769083714071
0.754699800914
0.739134387311
0.722611891038
0.705297576389
0.687304265881
0.668724236917
0.649658845301
0.630227933999
0.61056702751
0.590818818181
0.571123018566
0.551601917584
0.532346525642
0.513402881335
0.494763733861
0.476363021828
0.458076618002
0.439725373855
0.421082794506
0.401883001911
0.381830624501
0.360608931128
0.337888888986
0.313337636667
0.286632896893
0.257480676547
0.225647679912
0.190996933294
0.153534287841
0.113446360273
0.0711100926546
0.0271288000167
-0.0177770009473
-0.0626520833639
-0.106865531408
-0.149033199722
-0.190277939413
-0.225215395021
-0.268357347037
-0.273163825936
-0.371857543213
0.0647208956441
-0.622647242092
-1.53136198716
2.43284457119
0.464205470657
0.548597224316
0.516557943801
0.387649219323
0.304414098645
0.259715553471
0.236902457228
0.231266421836
0.240012635996
0.259884150349
0.287916045933
0.321714568918
0.359356509849
0.399282147871
0.440230803174
0.481188740287
0.52134393526
0.560047891732
0.596785957627
0.631152658741
0.662832111626
0.691581682203
0.717219558678
0.739615069189
0.75868167054
0.774372049555
0.786674446968
0.79561139444
0.80123815595
0.803647927181
0.802968792593
0.799350956714
0.792818510774
0.783378872165
0.771199875116
0.756525169554
0.739663194202
0.720969253302
0.700811827661
0.679541839541
0.65747926081
0.634911117379
0.612091313297
0.589239198727
0.566540423695
0.544148463741
0.522186439797
0.500746135674
0.479885860419
0.459625752268
0.439943202891
0.420767396387
0.401976000784
0.383393026478
0.36479084195
0.345894932494
0.326392915963
0.305946968828
0.284206952471
0.2608304251
0.235500393957
0.207956854957
0.178015184946
0.145619927778
0.110882357654
0.0740935617761
0.0357038670397
-0.00372162930191
-0.0433095718276
-0.0826617381075
-0.120639719916
-0.158753850489
-0.191473719749
-0.235205461377
-0.24010852826
-0.356635603971
0.146258426071
-0.628718968506
-1.66147488107
3.25595634327
0.546266144168
0.713352525456
0.582187721502
0.419609415071
0.326794326048
0.275053592464
0.247931990436
0.240210907073
0.24773978104
0.266537464289
0.293384267223
0.325800247057
0.361847612862
0.399996784875
0.439039063629
0.478018932608
0.516179050536
0.552918889562
0.587762679453
0.620335220615
0.650342248278
0.677555519421
0.701800861163
0.722949471261
0.740911166786
0.755629721618
0.767079000889
0.775261247699
0.780202209105
0.781955916397
0.780587122042
0.776251575973
0.769241281091
0.759777301484
0.748021996008
0.734131330148
0.718285888535
0.700698325468
0.681603737325
0.661247464021
0.639879569878
0.617753520921
0.595121922799
0.572228275726
0.549297417833
0.526528042138
0.504087333066
0.482107969028
0.4606861148
0.439880621466
0.419711914928
0.400160961239
0.381167438887
0.362627618795
0.344392884786
0.326269948252
0.308022831
0.289379876922
0.270041359873
0.249696129558
0.228021920791
0.204731198558
0.179571237942
0.152344348146
0.122955747327
0.0915239969235
0.0581789374533
0.0230700850078
-0.0129919108995
-0.050276353763
-0.0880538493281
-0.127990636761
-0.164703056817
-0.213999197299
-0.23023311235
-0.357839489375
0.205640924501
-0.665866736663
-1.75130424733
4.108852217
0.557718132344
0.871766375572
0.635501475401
0.455995126318
0.357048644051
0.299893222933
0.270076973321
0.261231199861
0.267947811371
0.285711332237
0.311132315218
0.341701052476
0.375525404565
0.411161854105
0.447501430872
0.483684723045
0.519040328016
0.553040141785
0.585267586775
0.615393642486
0.643159312258
0.668362003975
0.690845659386
0.71049315384
0.727220841688
0.740974535287
0.751725984629
0.759471435097
0.764225321829
0.766026737644
0.764913645766
0.76102437065
0.754515165584
0.74553086551
0.73420155361
0.720675998013
0.705146335102
0.687841556036
0.669008389143
0.648896470277
0.627753007524
0.605823080556
0.583349300592
0.560568095381
0.537703644249
0.514961285688
0.492521511756
0.470534922366
0.449118637304
0.428354471221
0.408288721982
0.388932926391
0.370265541945
0.352232250829
0.334746882709
0.317691303244
0.300915793139
0.284241053995
0.267449633477
0.250311369109
0.232560021323
0.21388622704
0.193968526296
0.172455912952
0.148925842083
0.123476272765
0.0953120569572
0.0638783901707
0.029895181027
-0.00764794251272
-0.0491217590539
-0.0956411491143
-0.143296915199
-0.203662633112
-0.246317787911
-0.357896363605
0.242793768233
-0.755276867542
-1.79718248684
4.95924622833
0.501140632822
1.03512098878
0.681457272745
0.499043759317
0.393980254822
0.332386598875
0.300872166458
0.291278448212
0.297140413877
0.313548607004
0.337015988026
0.365068649892
0.395919384874
0.428258008227
0.46110839409
0.493729973459
0.525550694714
0.556122307911
0.585089421795
0.612168268618
0.637131367036
0.659796865955
0.680020677768
0.69769106917
0.712724543689
0.725063014843
0.734671007305
0.741534623465
0.745655841477
0.747060624092
0.745777911808
0.741950142516
0.735773996663
0.727373542403
0.71682954096
0.70423763997
0.68973530322
0.673496746693
0.655719724307
0.636616684872
0.616411223567
0.595336019054
0.573629272569
0.551528844695
0.529265384247
0.507055442352
0.485095264388
0.463555317069
0.442576024045
0.422265861777
0.402701488483
0.383929967562
0.365973681062
0.348832652674
0.332490666218
0.316916320714
0.302059572781
0.287860995821
0.274230842997
0.26102408499
0.248062562423
0.235030108991
0.221639716147
0.207217245973
0.190548583586
0.171836763815
0.149526817314
0.121876996655
0.0887565375711
0.0482440612105
-0.000969748542498
-0.0595088003777
-0.125008097372
-0.203485759244
-0.279700462253
-0.337633591947
0.220604360297
-0.883070298143
-1.79885520497
5.77916070192
0.387337893422
1.21250255817
0.720918142377
0.548446630611
0.435452372309
0.370587710276
0.338049704585
0.327788953106
0.332551476127
0.347142685667
0.368063380779
0.39295040896
0.420178871248
0.448609385374
0.477420961788
0.506002231117
0.533883326243
0.560692872762
0.586130777651
0.609950458709
0.631947475067
0.651951929194
0.66982373347
0.685449297341
0.698739601
0.709628330769
0.718070821185
0.724042376868
0.727535846553
0.728569210575
0.727174609884
0.723491318358
0.717688983841
0.709854548911
0.700044976715
0.688337837782
0.674847088119
0.659714540231
0.643100087688
0.625178806939
0.606141784889
0.586196237514
0.565562519696
0.544468555493
0.523142739144
0.50180654814
0.480667408653
0.459912423714
0.439703150725
0.420174093513
0.401433953901
0.383569584739
0.366656023687
0.350761777358
0.335959982236
0.322336608503
0.309990963099
0.299010969635
0.289497514204
0.281430416015
0.274937386505
0.269311018949
0.2642117171
0.259004525514
0.251822270102
0.241676900038
0.22638123658
0.202954843254
0.169266939515
0.122204017181
0.0603861581057
-0.0157899777339
-0.103871339108
-0.205162641153
-0.305025786175
-0.302226931095
0.106408332867
-1.01925280991
-1.75956628214
6.54659672266
0.231834551297
1.40871328651
0.752127328929
0.603364001287
0.479623265962
0.41307532232
0.379898176324
0.36888764728
0.372208624735
0.384475532773
0.402277279641
0.423436244516
0.446537273676
0.470637357008
0.49507968232
0.519380747576
0.543164597285
0.56612488984
0.588002950306
0.608575312272
0.627646803768
0.645047008855
0.660628636707
0.674266922949
0.685859613589
0.695326466626
0.702609921624
0.707671274428
0.710496681104
0.711082770228
0.709498365473
0.705911270167
0.70044371841
0.693161258704
0.68410364806
0.673328021256
0.660919364777
0.646983793717
0.631643355863
0.615036836911
0.597322798459
0.578680779805
0.559309532566
0.539422498376
0.519241795625
0.498990786742
0.478886585896
0.459133089955
0.439914460041
0.421394553867
0.403719921025
0.387026118764
0.371455714277
0.357167105358
0.344360854068
0.333275627144
0.324230973202
0.317520517896
0.313689800967
0.312514310237
0.31462403136
0.319515799008
0.326207447456
0.333718949988
0.339532713966
0.340567778295
0.33293308399
0.312607215484
0.275717569992
0.218728656336
0.141109024056
0.045474302358
-0.0639680668085
-0.186187792049
-0.299264973083
-0.284021095456
-0.112956964449
-1.12387258507
-1.68400099969
7.24641056064
0.0519007755249
1.62402104159
0.772529921709
0.663383405554
0.525071855544
0.458796479585
0.425039515885
0.41311272375
0.414610692355
0.424063292393
0.438254815246
0.455256852358
0.473898787529
0.493446490492
0.513404990307
0.533407349092
0.55315557941
0.572390369747
0.590876421925
0.608396418305
0.624749501385
0.639752042497
0.653239474055
0.665068056554
0.675116836345
0.683288020665
0.689509134326
0.693728207964
0.695924466264
0.696086356281
0.694314417479
0.690781393196
0.68556865935
0.678729019234
0.670304417021
0.660348561962
0.648930091665
0.636128333685
0.622032920606
0.606748110972
0.590398086223
0.573130263631
0.555115727564
0.536547012315
0.517634026344
0.49859739202
0.479661195213
0.461046390557
0.442962549449
0.425609590305
0.409183437607
0.393884823208
0.379951772146
0.367665998444
0.357415674143
0.349648994096
0.345117716396
0.344150924016
0.348042892474
0.357038756875
0.371480787992
0.391299713279
0.414693464464
0.439076882456
0.460459311296
0.473844306498
0.473687100524
0.454840100285
0.412782555089
0.345103436983
0.253323258592
0.142007504251
0.0137082234877
-0.134813601602
-0.279765692238
-0.333890482382
-0.404643159827
-1.1505260978
-1.57813893573
7.86953753311
-0.136005329926
1.85485954883
0.780145975703
0.728651525748
0.570615527217
0.506943488902
0.472345602557
0.459327218234
0.458621209371
0.464829777868
0.475031023064
0.487593195497
0.501611380117
0.516560740667
0.532095771201
0.54794704075
0.563872781267
0.579638734837
0.595012657137
0.609765834885
0.623677624326
0.636540787621
0.648166419017
0.658387776456
0.667063132652
0.67407691521
0.679342023024
0.682795599072
0.684411728239
0.684175998611
0.682211208326
0.678679981137
0.673637312009
0.66713307031
0.659220175374
0.649957860548
0.639407912102
0.627632623074
0.614697670935
0.600678496734
0.585667152799
0.569777732263
0.553149978376
0.535950114983
0.518370206531
0.500623044821
0.482936388035
0.465548548178
0.448698475915
0.432632203312
0.417612425069
0.403932962204
0.39197123618
0.382184236773
0.375288155954
0.371921771504
0.373555389453
0.381165500018
0.396211125579
0.419928631947
0.452235159684
0.492089606433
0.536404178128
0.580721931944
0.619143076898
0.644873683791
0.651254392275
0.632727682144
0.585497170275
0.508708290248
0.40406526047
0.272501686755
0.108493293547
-0.0942088717222
-0.304235299958
-0.46290248302
-0.668707884977
-1.08247777462
-1.44774083035
8.41219585201
-0.317690459693
2.09510462014
0.774373088605
0.799563015845
0.615129630151
0.556876209977
0.520858555309
0.506620339049
0.50335193067
0.505973239396
0.511926623199
0.519907734433
0.529285859812
0.539735152587
0.551039009321
0.563000750675
0.575409100726
0.588030952312
0.600616626701
0.61291026654
0.624660761237
0.63563145288
0.645607435341
0.654400097455
0.661849811044
0.667826439228
0.672231175082
0.674993248151
0.67608229349
0.675488946112
0.673333712309
0.669759484826
0.66481040434
0.658542921648
0.651026644225
0.642333208366
0.63252688096
0.621662391848
0.609789430619
0.596960065166
0.583236951369
0.568700904574
0.553458181056
0.537644560704
0.521429621579
0.505013962768
0.488626160257
0.472523850047
0.456982373809
0.442308809499
0.428859535934
0.417068575798
0.407526404149
0.400931690813
0.398540740813
0.401666130116
0.412246990311
0.43247079365
0.464050756729
0.50802027742
0.563502285876
0.627868208132
0.696117931381
0.761659675735
0.816616885886
0.852750773122
0.86276102519
0.840919443909
0.783354111823
0.687750524728
0.551670541669
0.370645322559
0.1404393647
-0.125648217189
-0.376862121196
-0.57447918046
-0.768602466736
-0.94311862324
-1.29861544979
8.87444601022
-0.482050098827
2.33737520645
0.756182491765
0.876323975982
0.657509732845
0.608104728794
0.569747180761
0.554255664213
0.548100448735
0.546892994898
0.548461794656
0.551847907014
0.556691995585
0.562847472814
0.57019998979
0.578596582953
0.587828696718
0.597640234695
0.607745735818
0.617850522542
0.627667956196
0.636932695006
0.645408496625
0.652891893787
0.659212424917
0.664231897123
0.66784317129
0.669969301574
0.670575879483
0.669658404746
0.667329644879
0.663698947971
0.658812818561
0.652737554006
0.645555672537
0.637351451608
0.628197998863
0.618152193221
0.607257014702
0.59554808831
0.583062609228
0.569849150919
0.555979362411
0.54155508715
0.526719840206
0.511658369579
0.496599230769
0.481824410686
0.467655922797
0.454494791856
0.442819797643
0.433304202519
0.426875337463
0.424820738121
0.428951887401
0.44168205563
0.465787234702
0.50394728768
0.557802301019
0.627461753674
0.710461664828
0.801967419652
0.894545775294
0.979192603263
1.04591689724
1.08479473075
1.0869127834
1.04442458828
0.950529890534
0.799643751273
0.588805455294
0.321784399421
0.0176916311058
-0.278371417792
-0.510084592731
-0.666881602325
-0.785419316397
-0.858409298628
-1.13573184017
9.25924757671
-0.621134953257
2.57416641492
0.727930658961
0.958617027256
0.696768855811
0.66027021385
0.618270336939
0.601632208321
0.592300338666
0.587130693341
0.584288803258
0.583174224182
0.583684806776
0.585826131044
0.589554694329
0.594729908154
0.601117689018
0.608416957916
0.616292634366
0.624406009675
0.632437481241
0.640101152484
0.647150677738
0.653379138674
0.658615386126
0.66272055323
0.665581770441
0.667118199215
0.66727520243
0.666067253394
0.663608853593
0.659947937388
0.655143852147
0.649273521968
0.642426052687
0.634693397171
0.626158281564
0.616885244756
0.606918573804
0.596284943377
0.585001673961
0.573087500674
0.560579725799
0.547543595665
0.534093537133
0.520396664533
0.506683486532
0.49327175337
0.480549567842
0.469070968029
0.45950753893
0.453028883628
0.451040737907
0.455623855637
0.469693168535
0.496579019517
0.539648132099
0.601519620423
0.682965731452
0.782320902794
0.894658634565
1.01221606855
1.12449464832
1.21937789701
1.28373971711
1.30436406869
1.26867347132
1.16543426559
0.986795070612
0.732145117842
0.413737358097
0.061540406606
-0.276503555635
-0.545130589462
-0.712468212478
-0.799849815922
-0.844210169281
-0.871464355888
-0.963715116723
9.57131530431
-0.729983839705
2.79865463054
0.69293535661
1.04544153174
0.732179309919
0.713089873964
0.665751521369
0.648259001336
0.635487011618
0.626331431704
0.619148902817
0.613715697295
0.610161039272
0.608609795051
0.609055200438
0.611336980178
0.615169165513
0.620188405646
0.626003270548
0.632234532841
0.638540701398
0.64463090406
0.650264351148
0.655244195007
0.659408353782
0.662622448014
0.664770513341
0.665766134593
0.66553253766
0.664103435274
0.661580957292
0.657964493282
0.653311929688
0.647703885909
0.641232993196
0.633997307736
0.6260892739
0.617583752151
0.608531344814
0.598955514541
0.588858960029
0.578233268142
0.567082094905
0.55543167533
0.543366299213
0.531032600381
0.518676509868
0.506673534366
0.49551168
0.48606600172
0.479397760077
0.477196917649
0.481872904412
0.49654556994
0.525108533967
0.571559920255
0.639261421012
0.72991802515
0.842407068826
0.972268878124
1.11116637612
1.24747374281
1.36658430791
1.45203740233
1.48632966359
1.45245613385
1.33609605342
1.12919151387
0.835321457236
0.475258968172
0.0892119860688
-0.269191920033
-0.549138036177
-0.724590540907
-0.807415372147
-0.827936544364
-0.79008036961
-0.685182373913
-0.786328296834
9.8165251122
-0.806138499877
3.00519391653
0.65499238518
1.13512830646
0.763394757088
0.766274831147
0.711576470278
0.693737417016
0.677273091816
0.664216739235
0.652842137523
0.643340071464
0.636031243279
0.631123952956
0.62861292166
0.628287656717
0.629788501991
0.632679996257
0.636517429661
0.64089432348
0.645467213482
0.649960893592
0.654157264878
0.657880746838
0.660984008637
0.663337583032
0.664821420446
0.66533940594
0.664797338772
0.663237525767
0.660736651213
0.657272300057
0.652881054757
0.647632174902
0.641615359228
0.634933328863
0.627689884085
0.619973143746
0.6118447013
0.603329690837
0.594420384751
0.585082246883
0.575286698156
0.565017697087
0.554329442523
0.543348530246
0.532367771221
0.521873063738
0.512638898529
0.505884295672
0.503366617346
0.507720502226
0.522421850543
0.551675080193
0.600037592095
0.671533721544
0.768582722609
0.890867361529
1.03422979647
1.19031001524
1.34628964918
1.48561586309
1.58866502445
1.63439242699
1.60241645239
1.47663115005
1.25008439209
0.930732928065
0.545950288629
0.14198566588
-0.224968615662
-0.5060864671
-0.679272464144
-0.758354863061
-0.776881004147
-0.746151952086
-0.64076740933
-0.472723466369
-0.606912008804
10.0012126451
-0.849207727158
3.1895262034
0.617919035771
1.22548232285
0.790501266949
0.819442445519
0.755210396524
0.73774230266
0.717331239713
0.700565970995
0.685207401837
0.67193507094
0.661203783726
0.653269749968
0.648094578203
0.645391232539
0.644711716265
0.645549130279
0.647419382483
0.649912319024
0.652708933992
0.655572135539
0.658319843707
0.66080264827
0.662885768042
0.664437893716
0.665329092141
0.665450296739
0.664693210521
0.663094507899
0.660712392355
0.657512049797
0.653500657708
0.648724147352
0.643259585256
0.637208858063
0.630686768963
0.623797262641
0.616617878069
0.609179467421
0.601468240459
0.593424592494
0.584982592556
0.576083442254
0.566768005047
0.557125703851
0.547629130465
0.538955901227
0.532220947983
0.529385784836
0.533189054738
0.547390947958
0.576512997307
0.625491201658
0.698882108912
0.799755074171
0.92843673451
1.08138163446
1.25023982515
1.42168778851
1.57755399589
1.69599780853
1.7531745768
1.72642539491
1.59859799286
1.36383265052
1.03320878032
0.637967346421
0.226920906774
-0.144073460651
-0.428649406033
-0.605757827003
-0.68627196568
-0.704047984776
-0.68880008738
-0.633880066361
-0.508446950362
-0.350158015619
-0.428111916242
10.1318302379
-0.860333022321
3.34881480627
0.585210723411
1.31400149156
0.814000623531
0.87205800252
0.796232530835
0.780001335277
0.75538483193
0.735202684807
0.716107666265
0.699395226454
0.685574528609
0.674918839807
0.667324664946
0.66240862333
0.659630002167
0.658422674381
0.658288385794
0.658844854194
0.659827476876
0.661055534296
0.662388190394
0.663697041542
0.664848194141
0.665693398412
0.666084697755
0.665898079653
0.665021534078
0.66347890222
0.661313048367
0.658477719767
0.654949283154
0.650745940917
0.645925305266
0.640582393951
0.634841058027
0.62882156533
0.622622875733
0.616285356007
0.609788000813
0.603046312626
0.595957046293
0.588415953881
0.580467860206
0.57229374857
0.564470639039
0.558097700948
0.55501387251
0.558166959248
0.571475807682
0.599774157894
0.648281267776
0.721944865311
0.824338476073
0.956417707893
1.11521589529
1.29282062779
1.47572163589
1.64502057181
1.77732055336
1.84701070709
1.82971324403
1.70746886394
1.47467742937
1.14362204944
0.746698950268
0.33273811863
-0.0438944601136
-0.33884757109
-0.531326018593
-0.628377462182
-0.657618199679
-0.651415738669
-0.625970209898
-0.565583173285
-0.444742903704
-0.308180080546
-0.252307847608
10.214611936
-0.841700037194
3.48152264024
0.559804381375
1.39812312788
0.834728439254
0.923416180091
0.834365180619
0.820268204383
0.791203310072
0.767982155593
0.745419228303
0.725613264964
0.70902140484
0.695913532153
0.686092622343
0.679069085937
0.674216415243
0.670933545809
0.668741721368
0.667323312298
0.666495425768
0.666142431914
0.666158239445
0.666419886274
0.666773357088
0.667033098514
0.667027369604