/*--------------------------------*- C++ -*----------------------------------*\
| =========                 |                                                 |
| \\      /  F ield         | OpenFOAM: The Open Source CFD Toolbox           |
|  \\    /   O peration     | Version:  v1806                                 |
|   \\  /    A nd           | Web:      www.OpenFOAM.com                      |
|    \\/     M anipulation  |                                                 |
\*---------------------------------------------------------------------------*/
FoamFile
{
    version     2.0;
    format      ascii;
    class       volScalarField;
    location    "200";
    object      pa;
}
// * * * * * * * * * * * * * * * * * * * * * * * * * * * * * * * * * * * * * //

dimensions      [0 2 -2 0 0 0 0];


internalField   nonuniform List<scalar> 
6400
(
-0.726585455554
-0.724064564923
-0.711578158124
-0.698294646877
-0.66074258987
-0.610069218654
-0.560046329276
-0.515320550893
-0.4758589122
-0.442189537451
-0.41563431258
-0.39689728735
-0.385656045256
-0.380946461785
-0.381583557112
-0.386376735421
-0.394233466188
-0.404208849605
-0.415531093125
-0.427596294053
-0.439954008106
-0.452281637673
-0.46436173958
-0.476056195727
-0.48728660305
-0.498015519985
-0.50823413679
-0.517951101931
-0.52718532534
-0.535958582422
-0.544289855788
-0.552189602148
-0.559650459374
-0.566618942653
-0.572933239972
-0.578281094626
-0.582699837512
-0.588691014261
-0.600050441892
-0.617961203066
-0.642975821655
-0.673886225294
-0.709527934578
-0.74961545221
-0.794505878677
-0.844587118347
-0.899908135053
-0.960107544532
-1.02441085119
-1.09155451295
-1.15965133843
-1.22608102752
-1.28749442416
-1.33999982772
-1.37956308105
-1.40260994058
-1.40672905811
-1.39131727645
-1.35794543928
-1.31029024832
-1.25355405444
-1.19348269817
-1.13532668925
-1.08289311196
-1.03824655017
-1.0014725599
-0.972031165159
-0.948988600972
-0.933164033237
-0.92397118026
-0.913302567303
-0.903828040041
-0.897483260462
-0.892545011496
-0.88943181671
-0.887887518936
-0.88736530554
-0.887350476657
-0.88807731305
-0.889793523815
-0.789920025201
-0.757948732392
-0.731752397023
-0.661579435218
-0.534379618926
-0.37165770287
-0.188602116682
0.0114140517557
0.224665271813
0.444062123001
0.662139902841
0.873119242287
1.07308724938
1.25956501174
1.43114713355
1.58726105579
1.72796221788
1.85375460887
1.96543731073
2.06399203789
2.15049189927
2.22604014585
2.2917188654
2.34856115243
2.39752577294
2.43948856882
2.47523010452
2.50543592612
2.53069057905
2.55148254539
2.56820275699
2.58115190812
2.59053808097
2.59647091768
2.59899351826
2.59843646929
2.59712761088
2.59990461226
2.60922112893
2.62165886833
2.63208914236
2.63846796815
2.64083043304
2.63920130437
2.63284382785
2.62032078909
2.59965170514
2.56827882862
2.52293714284
2.45957470641
2.3734496102
2.25947604179
2.1128873166
1.9302172538
1.7104967626
1.45638944021
1.17488115072
0.877126492252
0.57726173362
0.290303915004
0.0296417517432
-0.19515177956
-0.379553310778
-0.524050094535
-0.633146660932
-0.713463494973
-0.772248368279
-0.815875220975
-0.849860837762
-0.877943738648
-0.893988468887
-0.89506179287
-0.890844459988
-0.886517965393
-0.884263113179
-0.884109839094
-0.885168919164
-0.885902506711
-0.886807249275
-0.890694012238
-0.903407403186
-0.708051865624
-0.731378033366
-0.704415702223
-0.584137489437
-0.451505327512
-0.327446222476
-0.203832751742
-0.08031409078
0.0368811518383
0.142444658097
0.233705281354
0.309703080189
0.370444438097
0.416609261568
0.449367818809
0.470196852076
0.480714495023
0.482560475905
0.477310917618
0.466423538756
0.451200965835
0.432774472149
0.412098565592
0.389958067277
0.366978289947
0.343640836555
0.320297950578
0.297189682304
0.274458199423
0.252163519794
0.230297019179
0.20879079668
0.187505597352
0.166038363898
0.142995325197
0.114506284923
0.0802155817571
0.0431284396868
0.00450893532444
-0.0344444872993
-0.0744450446182
-0.116242175086
-0.159867342231
-0.204831470063
-0.250311886744
-0.295093409242
-0.337442106178
-0.375103532116
-0.405491247404
-0.426096493671
-0.435121181146
-0.432276452451
-0.419548955837
-0.401606410744
-0.385474928899
-0.379293696292
-0.390305489829
-0.422662277036
-0.475867724809
-0.544577607893
-0.619961306972
-0.692188289031
-0.753018741616
-0.797702986942
-0.825093758356
-0.836678283375
-0.835833195591
-0.832898340287
-0.84743307273
-0.871123130806
-0.8829204787
-0.886025228671
-0.885970767102
-0.885773199961
-0.886503468062
-0.887634590853
-0.886339373493
-0.883870569742
-0.891605734944
-1.02681329105
-0.532822070895
-0.640210205067
-0.615969320746
-0.457144959866
-0.314093249282
-0.198342487868
-0.086352491585
0.0262136780791
0.134446472918
0.234990556487
0.326926282858
0.410252637193
0.485257465821
0.552462512219
0.612594506748
0.666489509654
0.715002385065
0.758944036357
0.799045783624
0.83593612803
0.87013313828
0.902045182001
0.931982856922
0.960172476911
0.98677341551
1.01189135133
1.03559185373
1.05790848963
1.0788510112
1.09840908713
1.11655407231
1.13324308949
1.14842726369
1.16221216081
1.17528010004
1.1885361277
1.19871794364
1.20380904877
1.20478902907
1.20270912417
1.19674400123
1.18511406981
1.16613494277
1.13830551702
1.09997936211
1.04924064216
0.98408043159
0.902753433235
0.804234774077
0.688757512509
0.558336161778
0.417061386232
0.270872835542
0.126622124259
-0.00947778421863
-0.13351387611
-0.244904971228
-0.346166892972
-0.44132863415
-0.533624465961
-0.623522007063
-0.70813147325
-0.782063386749
-0.839452657796
-0.874608276036
-0.882089068836
-0.858730322226
-0.829592171637
-0.833060057644
-0.857053420406
-0.872156463721
-0.879058000508
-0.881835826592
-0.883481248197
-0.885694466639
-0.887900990056
-0.885066977618
-0.878413107334
-0.892707528812
-1.1761827073
-0.22494755593
-0.467906577008
-0.456687620287
-0.301530919305
-0.195298497041
-0.124148501141
-0.0551423747366
0.0155165412326
0.0831648462852
0.145353334901
0.201512130922
0.251443612358
0.294987356163
0.332133422809
0.363063652567
0.388105146617
0.407676092382
0.422249903825
0.432326427406
0.438407572877
0.440977108206
0.440489155902
0.437361644933
0.431974923354
0.424669883286
0.41574770125
0.405467127469
0.394043311542
0.381644561107
0.368391335453
0.354354966653
0.339555178965
0.323948342575
0.307360335192
0.289401043969
0.270782661887
0.252502812576
0.234176750121
0.216196485768
0.199301493101
0.183694072756
0.169192712701
0.155773749001
0.143725693569
0.133428100868
0.125071959511
0.118456348814
0.112800868091
0.106542062391
0.0972066314093
0.0815442551262
0.0560714897611
0.0180112320412
-0.033664847778
-0.0976095454781
-0.170374163623
-0.247663206377
-0.32603893504
-0.404143868862
-0.482660925687
-0.562934186575
-0.644991670979
-0.726045834955
-0.799540396036
-0.85391264333
-0.869179091897
-0.838928417049
-0.811059095324
-0.824131892067
-0.849561558191
-0.864305855199
-0.872289858351
-0.876578424952
-0.87949002706
-0.8830069384
-0.886433125495
-0.882035232653
-0.870285832329
-0.89383835964
-1.34697572412
0.201503730322
-0.284854429902
-0.300769456969
-0.177983358327
-0.1203321301
-0.0871961774992
-0.0476254902656
-0.00213937406651
0.0444069156266
0.0898851125506
0.133522264708
0.174712363907
0.21290240674
0.247731460773
0.27905520905
0.306902568923
0.331438106207
0.352931946856
0.371724854762
0.388189505918
0.402697351991
0.415594676295
0.427189612025
0.437745566279
0.447480356007
0.456566128157
0.465131676446
0.47326361186
0.48100941922
0.488379318032
0.49535092504
0.501872988039
0.507875180006
0.513262521802
0.517877761998
0.520973208493
0.522031989283
0.520649882856
0.516500022331
0.509324678594
0.498676200882
0.483841050624
0.464021424923
0.43853187764
0.406883711393
0.368838006147
0.324510405802
0.274498268479
0.219920734219
0.162268058881
0.103025849166
0.043175351041
-0.0171795985465
-0.0787545296071
-0.142481075389
-0.208627544028
-0.276262100038
-0.343582550002
-0.409131944494
-0.473168253748
-0.538102728978
-0.607561727629
-0.683227239703
-0.760476089728
-0.818167228542
-0.821889378331
-0.785179968059
-0.779628317297
-0.813231679543
-0.842294476782
-0.85736419928
-0.865859007033
-0.870823779286
-0.874410421929
-0.878963799102
-0.883659215725
-0.877552984673
-0.859634806088
-0.89523503322
-1.50873474596
0.731625772437
-0.133907464046
-0.164023239549
-0.0868529601785
-0.0754523888043
-0.0707214816017
-0.0519559264151
-0.0241244032135
0.00801783190464
0.042228617315
0.0772746416018
0.112052059508
0.145572633476
0.177076492771
0.206016506536
0.232029903707
0.25493710164
0.274728609484
0.291526496228
0.305536036623
0.317002361887
0.326179609657
0.333310681784
0.33861752616
0.342296297041
0.344516632588
0.34542000997
0.345118730917
0.343693416341
0.341191402864
0.337625553771
0.332976041219
0.327205128781
0.320306798405
0.312419663362
0.303618347021
0.294117767884
0.283993688635
0.27330175235
0.262138409522
0.250572586707
0.238553845704
0.225910036826
0.212386417004
0.197632767688
0.181127729246
0.162110955
0.13960002918
0.112536884691
0.080051498421
0.0417488644323
-0.00214438462881
-0.0509071463596
-0.103677460596
-0.159765106067
-0.218593830997
-0.279272575937
-0.340206361564
-0.399505951865
-0.456434860287
-0.513334713837
-0.576199893812
-0.65127056274
-0.731327350117
-0.777363748509
-0.755742230503
-0.723907880379
-0.750804588636
-0.800860256095
-0.832776939565
-0.849166406297
-0.858460130866
-0.863984506806
-0.868023218011
-0.873464914411
-0.879459458082
-0.871412675343
-0.846237753348
-0.897066460147
-1.63421068781
1.32504771215
-0.0515958530456
-0.0440431478924
-0.0181436518261
-0.0425494666387
-0.0556854298797
-0.0496893567769
-0.03199659939
-0.00716368517306
0.0221078327264
0.054220115344
0.0876965001043
0.121241064984
0.153814668627
0.18456616119
0.212854152548
0.238301768545
0.260790863738
0.280402466067
0.297344699386
0.311892254732
0.324341340548
0.334979938665
0.344069794405
0.351838951434
0.358479500978
0.364147569222
0.368962540687
0.37300609773
0.376321490734
0.378913345765
0.380748913077
0.381756987288
0.381808885966
0.380643322218
0.378029219876
0.373667847688
0.367316944531
0.358700530142
0.347514754552
0.333447130333
0.316183989834
0.295449533895
0.271089814804
0.243161012941
0.211966983449
0.178010012237
0.141851788728
0.103927976799
0.0644073530334
0.0231867804737
-0.0199555399538
-0.0651522365706
-0.112343308785
-0.161369766762
-0.212082305821
-0.264235270075
-0.316999261827
-0.368909664785
-0.419127023968
-0.470449734346
-0.532711935727
-0.614890995859
-0.696578595128
-0.720103082173
-0.681969737458
-0.676420803891
-0.732565142194
-0.789285676804
-0.821737004028
-0.839281165943
-0.849471806682
-0.855606559163
-0.860024595184
-0.866273109813
-0.873571603173
-0.863273176032
-0.829796960656
-0.899564218159
-1.70405906038
1.93178629928
-0.0476511214154
0.0790213891049
0.0389839183775
-0.0100769715904
-0.0351219190046
-0.0378058589398
-0.0263480599482
-0.00563224680501
0.0209952409738
0.051806865938
0.0849855924585
0.118987225211
0.152515021176
0.184399612542
0.213743378567
0.24003893185
0.263135683908
0.283132990393
0.300275917356
0.314877033055
0.32726295772
0.337740086675
0.346575147864
0.353988181096
0.360152921903
0.365200794867
0.369223640411
0.372276064151
0.374375527891
0.375502035079
0.375595660203
0.374555479041
0.372247273674
0.368557282514
0.363392538131
0.356636931507
0.348232757457
0.338068134174
0.325959649854
0.31168550916
0.295018011621
0.275732187912
0.253607123884
0.228446012902
0.200131897651
0.168702813275
0.134398981175
0.0976382265226
0.0589215178804
0.0187176970114
-0.0226003154624
-0.0647467076781
-0.107459962153
-0.150529150813
-0.193851741588
-0.23749435729
-0.281186247101
-0.324044081971
-0.365632574084
-0.41146278332
-0.476880349009
-0.5679081754
-0.641689128294
-0.641572304664
-0.613868864436
-0.648229797779
-0.722810418549
-0.77887872672
-0.810201437173
-0.828223349112
-0.83904802103
-0.845642569001
-0.850289867442
-0.857198846177
-0.865679725848
-0.852664374802
-0.809943698456
-0.902850718614
-1.71283868641
2.50394796146
-0.110203335397
0.221924868541
0.0846301603646
0.0251364310486
-0.00920922053453
-0.0176402168316
-0.00969492140225
0.00875177334111
0.0339507673234
0.0642903295808
0.097517623578
0.131908009149
0.165892076428
0.197967071368
0.227078501584
0.252750555275
0.274952772116
0.293918248533
0.310008138716
0.323625508326
0.335163849111
0.344977246338
0.353365499728
0.360568441875
0.36676840583
0.3720959768
0.376638196686
0.380444845127
0.383532737293
0.385885605655
0.387451848779
0.388139157146
0.387806229837
0.386231156538
0.383083083821
0.378078085069
0.370959637076
0.361483609394
0.34933126251
0.334138275381
0.315596145713
0.293554213693
0.26806671258
0.239368401129
0.207812447533
0.173825092541
0.137890241711
0.100526422236
0.0622432661898
0.0234921449506
-0.0153380417215
-0.0539119951403
-0.091890206385
-0.128995162771
-0.165063104523
-0.200284422868
-0.234557268935
-0.267471924135
-0.299486315925
-0.34142714469
-0.414161481975
-0.509057459784
-0.564223127967
-0.555707779456
-0.563701007369
-0.635361402015
-0.716670816413
-0.768880339785
-0.798526484995
-0.816443318626
-0.827524791983
-0.834281284623
-0.838906507908
-0.846220844134
-0.855571100783
-0.839158824492
-0.786325743512
-0.906869492976
-1.66559179963
3.00721584834
-0.213337772039
0.39111017597
0.113735129051
0.0648382277968
0.0200910907196
0.00864912104598
0.0146306146569
0.0314310292783
0.0555329845348
0.0854305179985
0.118229482955
0.152119249313
0.185144625411
0.21547137467
0.242085361223
0.264762590737
0.283738353568
0.299447229443
0.312380583844
0.323017049106
0.331789972602
0.33907487414
0.345183022214
0.350358647103
0.354778894568
0.35856092678
0.361774255504
0.364454620284
0.366613042952
0.368238619747
0.369296216235
0.369721025488
0.369405452831
0.36818917128
0.365847623036
0.362090207051
0.356617229814
0.349161918704
0.339380671441
0.326812691114
0.31094850499
0.291386406035
0.267998963745
0.240991124693
0.210820055237
0.178076617925
0.143429649774
0.107597195179
0.0712939092569
0.0351425512193
-0.000327568214145
-0.0346682640302
-0.0673895177849
-0.0980780949349
-0.126434746255
-0.152605869422
-0.17674953985
-0.19848761427
-0.222273736476
-0.266868965942
-0.34948533063
-0.438774226329
-0.476873079739
-0.483986970375
-0.536808257142
-0.631961513114
-0.711370685318
-0.758982823543
-0.786932544048
-0.804343353538
-0.815331387012
-0.821919009324
-0.826214224485
-0.833582025214
-0.843261335848
-0.822531716477
-0.758927011219
-0.911441831056
-1.57422520797
3.42388063955
-0.328908056632
0.58083521056
0.121603983991
0.110965951625
0.0500350184118
0.039146416668
0.0435996725457
0.0588108872532
0.0819865406202
0.111259131873
0.142963224075
0.175293146235
0.20566660903
0.232052200459
0.253841945531
0.271334095275
0.285147778108
0.295938621822
0.304303013504
0.310755705451
0.315733132272
0.319603455833
0.322669601232
0.325165180357
0.327250938468
0.329020991597
0.330520715743
0.331767667451
0.33276575435
0.333511155464
0.333992124927
0.334186908439
0.33405607147
0.333534417124
0.332481262914
0.330664720971
0.327779762523
0.323476097067
0.317326723824
0.308776664388
0.297143469148
0.28176004909
0.262244596018
0.238707701172
0.211705494452
0.182005648112
0.150419954618
0.117759026886
0.0848415521025
0.0524081390862
0.0211453530327
-0.00832163469918
-0.0352328939449
-0.0587999101005
-0.0786514766437
-0.0944508234844
-0.106914237216
-0.118167757656
-0.139235930711
-0.193497713324
-0.283422774803
-0.362616083265
-0.398976791771
-0.440156001427
-0.53055558787
-0.633721158841
-0.706620344806
-0.749799420565
-0.776064937612
-0.792664108938
-0.803224420187
-0.80930629701
-0.812967379624
-0.820002386423
-0.829306210841
-0.803248827409
-0.728715985431
-0.916845909035
-1.45277271874
3.751099958
-0.43432771974
0.778021339375
0.108199725134
0.165188869293
0.0777302383583
0.0725076690458
0.0744759043856
0.0881260378598
0.110647802933
0.139013332518
0.1689833607
0.198671513778
0.224532374987
0.24477585114
0.259738375198
0.270478965005
0.278025651062
0.283197647475
0.286622242017
0.288787376319
0.290080339993
0.290817547722
0.29124829464
0.291548777494
0.291817227308
0.292083930412
0.292337350342
0.292551071667
0.292698823591
0.292759677379
0.292718183133
0.292562237141
0.292283947897
0.291877962
0.291341857091
0.290647185597
0.289694579221
0.288223686329
0.285800052351
0.281806661588
0.275444273451
0.26580812794
0.252137959779
0.234163131224
0.212250875108
0.187200129778
0.159969285761
0.131511358069
0.102791785326
0.0747088757102
0.0481565991315
0.0240642144975
0.00349932200665
-0.0119858863794
-0.0217583100181
-0.0261297476001
-0.0269120357318
-0.031214087556
-0.0571958410708
-0.124494996349
-0.217849182439
-0.292416532221
-0.345864179997
-0.425765639879
-0.53841735102
-0.638443947146
-0.703323562305
-0.742427858765
-0.766949750652
-0.782439258784
-0.792222866542
-0.797509190386
-0.80031832685
-0.806714159443
-0.814937438544
-0.782735941131
-0.69819336327
-0.924246956015
-1.3146264564
3.99616110186
-0.516074718359
0.968087081109
0.0781963811974
0.227318672042
0.100681274285
0.107794340811
0.10483201059
0.117560225099
0.139825198236
0.16695996984
0.194787282101
0.220799455108
0.240258817802
0.252530214813
0.259515267154
0.263116406645
0.264634868996
0.264884167099
0.264381848554
0.263483714317
0.262446842646
0.261468056219
0.260685369008
0.260168279986
0.259914847192
0.259875044113
0.259983665925
0.260189543376
0.260456800195
0.260760095247
0.261076929999
0.261379899982
0.261635702261
0.261805557392
0.261884804253
0.261896414203
0.261879321573
0.261807016281
0.261421310144
0.260181822441
0.257348170718
0.252074700061
0.243520824565
0.231096898327
0.214765880925
0.195044566068
0.172799987439
0.149028319863
0.124837786982
0.101356577639
0.0797273470512
0.0615007465603
0.0483411050699
0.0419887375363
0.043300349953
0.0507807781944
0.0592168244857
0.0552272783942
0.0175207895019
-0.0630553867413
-0.159733644257
-0.241409401377
-0.323606867316
-0.434650346533
-0.554386446638
-0.645560464989
-0.70271248466
-0.738277861884
-0.761030274421
-0.774915408475
-0.783501529006
-0.787705940092
-0.789504219854
-0.795007397425
-0.801371215046
-0.762322719061
-0.669763593855
-0.933912838464
-1.17058477469
4.17167052378
-0.569195326226
1.13936725668
0.038834156912
0.294939369399
0.117541236791
0.144201996981
0.132753483336
0.146204167619
0.168385261778
0.193908786218
0.219494502999
0.24077258395
0.252031888263
0.255212539239
0.254274240551
0.251758557082
0.248879078306
0.246131074061
0.243691037147
0.241623522296
0.239962340179
0.238736980841
0.23798297336
0.237685361033
0.237773235727
0.238159246299
0.238775101272
0.239583354913
0.24056697156
0.241704895599
0.242963635088
0.244290138904
0.245610856327
0.246830274579
0.247866214888
0.248653723749
0.249135105116
0.249357434268
0.249324554683
0.24880215602
0.247341104133
0.244414523991
0.239408338115
0.231620308494
0.22053693726
0.206140114879
0.188968394787
0.169940851837
0.150237128653
0.131440159571
0.115177397142
0.103363350814
0.0984446096191
0.102425062277
0.115267521003
0.132940310893
0.145255063066
0.133731652438
0.0796556398563
-0.0141419256078
-0.118612716552
-0.218075348568
-0.329850518316
-0.458768084844
-0.57481241759
-0.655527739441
-0.706132655413
-0.738464717122
-0.758773021316
-0.770704426303
-0.777674465226
-0.780598250875
-0.781310637366
-0.785600005889
-0.788739155455
-0.741193308457
-0.642462138873
-0.940371554742
-1.02868523389
4.29168624601
-0.594934812449
1.28495880583
-0.00266394890725
0.364170653248
0.128357318475
0.180785932362
0.157102989402
0.173761361459
0.195309655355
0.218919018058
0.24253202083
0.257924863978
0.25946125386
0.253419355068
0.245907609028
0.239508234224
0.23475079298
0.231389699815
0.229021433861
0.227384078585
0.226388782982
0.22599059451
0.226157391007
0.226780034403
0.227724026905
0.228898091486
0.230261828282
0.231806796327
0.233533426234
0.235412696936
0.237399522108
0.239438581348
0.241463396899
0.243381329233
0.245096323475
0.246498461102
0.247413397002
0.247653145557
0.247223629476
0.246183750344
0.244565379512
0.242431060875
0.239682984199
0.235686178131
0.229434570179
0.220192206542
0.207895096726
0.19341738464
0.178215648261
0.164134660956
0.153469151405
0.148905129402
0.153304379672
0.168211180296
0.19150886429
0.215237574731
0.224136784463
0.197943736051
0.124733460179
0.0164419156096
-0.101750559429
-0.223615397183
-0.357599592999
-0.491458147043
-0.598048492512
-0.668987346791
-0.714002270351
-0.742072482062
-0.75884619584
-0.768880760426
-0.774465950465
-0.776379399743
-0.776490980705
-0.779637418625
-0.777889568191
-0.719623446231
-0.616507033159
-0.935861808539
-0.894200111936
4.36936869651
-0.597924180989
1.40256611052
-0.0407336622455
0.430932816588
0.134279569436
0.216446648855
0.177599553482
0.200041458474
0.219481231128
0.241328919332
0.263571248658
0.271696842397
0.262415604654
0.248160786717
0.236533862827
0.229059139389
0.224844163297
0.22257312542
0.221331530296
0.22086483732
0.221107121066
0.221882449725
0.223022718899
0.224385840397
0.225890080827
0.227509011955
0.229250213873
0.231119482503
0.233102454739
0.235172580216
0.237297723318
0.239439002327
0.241546515829
0.24355013755
0.245371345425
0.246935883266
0.248075370455
0.248603464348
0.248366742269
0.247271335104
0.245566713602
0.243905312514
0.242976549595
0.242495708557
0.240813387616
0.236418788199
0.22876623485
0.218508492726
0.207540832757
0.198403523102
0.194030740419
0.1976856175
0.212089777718
0.237279781423
0.267902695383
0.291489766966
0.289291083875
0.243060263441
0.14909088427
0.0242791132427
-0.111347472407
-0.25344952438
-0.398923335604
-0.528273397286
-0.623454966179
-0.685721014551
-0.724452112783
-0.747193073904
-0.760865699061
-0.769328349848
-0.774014962398
-0.775747504207
-0.776957090484
-0.780746570969
-0.775226486398
-0.711101433307
-0.617828813052
-0.944264413801
-0.770439454462
4.41581467468
-0.583948134406
1.493313418
-0.0720152658694
0.491934864573
0.13698449688
0.250081240174
0.194590928366
0.224590758488
0.239922238672
0.261016792899
0.28246609451
0.281465952512
0.260902910056
0.240719524573
0.228156632422
0.222093682592
0.219728449261
0.218938922727
0.21891425317
0.219520758904
0.220508443313
0.221727211846
0.223114828899
0.22462537509
0.226248648538
0.227972959118
0.229787217102
0.231685125177
0.233656149994
0.235687909432
0.237762102072
0.23984913238
0.241898133048
0.243831709727
0.245590770581
0.247126080354
0.248377955434
0.24919440964
0.24939770785
0.248879161212
0.247761213013
0.246990404733
0.248079444325
0.25116712193
0.253968579523
0.25394909076
0.250298551503
0.243971000086
0.237411512536
0.23378051531
0.23654573034
0.249111525944
0.273241021664
0.306405768407
0.339317871853
0.35559112211
0.335596551618
0.265958237748
0.150471535144
0.00796930532069
-0.14479014828
-0.300443977163
-0.44735120638
-0.566886959742
-0.650713383696
-0.704324286356
-0.735640003836
-0.753887640395
-0.765466041242
-0.773023032274
-0.777454929658
-0.779947074612
-0.78406520747
-0.791552373182
-0.78872903251
-0.742454268679
-0.711674753992
-1.06232788803
-0.659054160232
4.4398505693
-0.558444380398
1.560302223
-0.0951286683919
0.545097270926
0.13812992916
0.2807622339
0.208675167096
0.246719534965
0.256241094583
0.278410314229
0.298959522545
0.286510269982
0.25533962341
0.232721176684
0.222306113561
0.218916620207
0.218276000627
0.218473594591
0.219089311571
0.219986005899
0.221030904729
0.222242509986
0.223646429073
0.225203019944
0.226881286125
0.228648873064
0.230475558122
0.232348365201
0.234268108494
0.236235411016
0.238242873243
0.240265558868
0.24225438175
0.24414976098
0.245888858184
0.247437497959
0.24876246716
0.249745270921
0.250273567664
0.250280136694
0.249963933575
0.250587198348
0.254292796931
0.261077355061
0.267868933602
0.271641874713
0.27162037911
0.269241647157
0.267517831248
0.270070397089
0.280612499629
0.30205627974
0.334309247765
0.371511028956
0.4004999869
0.402547712257
0.35984686547
0.265313194448
0.128660175333
-0.0306503217082
-0.196634876588
-0.357701034816
-0.49877457163
-0.60648761745
-0.679356680819
-0.72327618888
-0.747989311499
-0.763066989461
-0.7731176087
-0.780038282264
-0.784632591108
-0.788047106834
-0.793721115474
-0.80342825852
-0.808352450368
-0.810324832326
-0.909888608391
-1.33746287921
-0.560502741547
4.44821114707
-0.525832460943
1.60737221531
-0.110174502398
0.589474105257
0.139008067274
0.307823455652
0.220434047261
0.265807692781
0.2687947711
0.294077970972
0.312499977589
0.286531053167
0.247160331666
0.225942740291
0.21934720233
0.218362100624
0.218624549265
0.219110887887
0.219798195861
0.22065498131
0.22167212749
0.222892505069
0.224322108483
0.225924019919
0.227647188742
0.229444029925
0.231267838231
0.233095205916
0.23494113504
0.236824363922
0.238752478983
0.240714345176
0.24267668321
0.244560196768
0.246277862452
0.247790556594
0.249095308456
0.250181579349
0.250944985859
0.251393743806
0.25199151448
0.254453064209
0.261226214993
0.27164171464
0.281869664042
0.288910267274
0.292360799397
0.294172032647
0.297783258669
0.307041739626
0.325463780065
0.354742578126
0.392171711019
0.428303993148
0.446941926818
0.429072602458
0.360830440228
0.241637761531
0.0855847462807
-0.0874436773457
-0.260769165365
-0.420033327881
-0.551204414442
-0.646787628901
-0.708013157501
-0.742502300731
-0.762244183107
-0.77447938119
-0.782355687065
-0.787523771104
-0.790942883458
-0.793202530146
-0.79488835171
-0.796823259853
-0.802110486044
-0.841915526816
-0.99116938391
-1.31138055652
-0.474048461862
4.44580842367
-0.489403927518
1.63821045805
-0.118176626184
0.624959254156
0.140454789846
0.330909509964
0.230343812011
0.281567769199
0.278408902656
0.30826670852
0.322521617953
0.282381404677
0.238686163782
0.221686385694
0.21842673313
0.218669191465
0.219233611336
0.2198073871
0.220539521089
0.221459124098
0.222562386283
0.223861083261
0.225347481546
0.226973995678
0.228662745425
0.230391706988
0.232144751203
0.233875947147
0.235595079533
0.237339570998
0.239139407829
0.241007834628
0.242905819187
0.244725557284
0.246357477866
0.247790244694
0.249106311561
0.250294858048
0.251245104417
0.252130985692
0.2538510083
0.258631227369
0.268677523028
0.282374739852
0.29553571307
0.305538863087
0.312498601819
0.318808323937
0.328131378234
0.344230205642
0.369884977353
0.404885794348
0.443472094718
0.472940590163
0.475452302786
0.433736940008
0.339151169087
0.197098247748
0.0248393357566
-0.157268612215
-0.331797493855
-0.484098052778
-0.603465963748
-0.686156646754
-0.734923038122
-0.761503989438
-0.776265808441
-0.784262432169
-0.788188561294
-0.789780949682
-0.789692794176
-0.787032740125
-0.778937237382
-0.76461071548
-0.757377584958
-0.778124551187
-0.688058074812
-0.0254274225783
-0.398252797524
4.43588967761
-0.451632101651
1.65600545704
-0.12050553853
0.652051082951
0.142958907066
0.349969099806
0.238798014729
0.294064616784
0.285926546456
0.320782704525
0.328852018583
0.275936870579
0.231748612156
0.219554396827
0.218267864059
0.218948029596
0.219670785918
0.220426089229
0.221298418877
0.222331040324
0.22354395807
0.224946587631
0.226520895361
0.228215413504
0.229937981768
0.23157649495
0.23312802053
0.234664846136
0.236188273655
0.237732523572
0.239364655666
0.24110851557
0.24290142377
0.244601164686
0.246098901875
0.247458549274
0.248807735444
0.250070634077
0.25120260327
0.252607358019
0.255744882368
0.263208738054
0.276482300916
0.293044812045
0.30877412647
0.321611441628
0.332192378529
0.343220628968
0.358346647979
0.380873606761
0.412289736026
0.449973930966
0.485084427801
0.502499257745
0.48437095651
0.41680817803
0.296874672584
0.135062673986
-0.0491458745578
-0.235145385511
-0.40568369238
-0.547847169255
-0.654100373674
-0.721932047696
-0.758819255848
-0.77773360632
-0.786321770417
-0.788802181681
-0.787908118704
-0.785126429769
-0.780220015331
-0.770785364014
-0.752520426037
-0.725341579381
-0.700315532821
-0.660109631062
-0.428339092118
0.190025708949
-0.332027579323
4.41998779232
-0.414022965825
1.66367106342
-0.118245602484
0.671726331161
0.146805482143
0.365202336609
0.246108901842
0.303577943101
0.291918284885
0.331158708043
0.331713884706
0.268773080288
0.226924357728
0.218581096966
0.218264321895
0.219080154303
0.219932899319
0.220818324107
0.221808160201
0.222951131089
0.224282395579
0.225811677848
0.227510178169
0.229320435498
0.231143857406
0.232816287164
0.234202431768
0.2354516237
0.23670382885
0.237997314743
0.239434224659
0.241028646091
0.242677511829
0.244210592493
0.245562498001
0.246878271665
0.248246790037
0.249547771557
0.250876482533
0.252989709293
0.257940365322
0.268330498615
0.284636299245
0.303690614912
0.321741287177
0.33735499065
0.351621337484
0.367381839822
0.388006463903
0.415933947733
0.450881012051
0.487574779079
0.514476235028
0.515215093358
0.473504718846
0.37991587914
0.23708000176
0.0595461936097
-0.13183405791
-0.316789363985
-0.479420293102
-0.609179085208
-0.699874731318
-0.751819577213
-0.777876569957
-0.78889624883
-0.791140175778
-0.788514839282
-0.783338668655
-0.776258344867
-0.766225767464
-0.750115328859
-0.723946833192
-0.68781311865
-0.644563061945
-0.556269434151
-0.297737684833
0.135248416966
-0.275664258003
4.3980458525
-0.376948324162
1.66448806893
-0.111739569874
0.685252985354
0.152100448466
0.37692470808
0.252495181088
0.310444550191
0.296634494082
0.338879153835
0.331464108706
0.261789444498
0.223806968741
0.218160809594
0.218252845549
0.219062207154
0.219971839193
0.220940029514
0.222025913576
0.223274001535
0.224719044752
0.22636794809
0.228189352716
0.230121514316
0.232067228301
0.233856065371
0.235257092783
0.236253657859
0.237140124801
0.238142089901
0.239355232934
0.240769242559
0.24223388848
0.243575056641
0.244806853443
0.246091292401
0.247437892632
0.248757070727
0.250342237761
0.253484358059
0.260693691966
0.274128591484
0.293208520347
0.314448696681
0.334644483892
0.352971647253
0.370860552648
0.39109175774
0.416467594455
0.448179040836
0.483843717209
0.51559780624
0.529924487883
0.510500581541
0.443895107022
0.325653054459
0.163410470288
-0.0252888026633
-0.219061481965
-0.398738342208
-0.550482639826
-0.665376476944
-0.737877113375
-0.775210014034
-0.791301494559
-0.794954619416