/*--------------------------------*- C++ -*----------------------------------*\
| =========                 |                                                 |
| \\      /  F ield         | OpenFOAM: The Open Source CFD Toolbox           |
|  \\    /   O peration     | Version:  v1806                                 |
|   \\  /    A nd           | Web:      www.OpenFOAM.com                      |
|    \\/     M anipulation  |                                                 |
\*---------------------------------------------------------------------------*/
FoamFile
{
    version     2.0;
    format      ascii;
    class       surfaceScalarField;
    location    "200";
    object      phi;
}
// * * * * * * * * * * * * * * * * * * * * * * * * * * * * * * * * * * * * * //

dimensions      [0 3 -1 0 0 0 0];
oriented        oriented;


internalField   nonuniform List<scalar> 
12640
(
2.32491231523e-05
-2.32492383186e-05
3.21167432525e-05
-8.86774848236e-06
3.79451005003e-05
-5.82849275774e-06
3.09483400676e-05
6.99665525599e-06
1.29917319641e-05
1.79564877056e-05
-1.55941819989e-05
2.85858010041e-05
-4.65972455698e-05
3.1002972724e-05
-7.65724509349e-05
2.99751379462e-05
-0.000105943266452
2.93707557311e-05
-0.000134522786251
2.85794676709e-05
-0.000162034909357
2.75120759147e-05
-0.000188258415589
2.62234643751e-05
-0.000213042108567
2.47836552525e-05
-0.000236298945485
2.32568030966e-05
-0.000257994528828
2.16955528891e-05
-0.000278134950849
2.01403944913e-05
-0.000296755681636
1.86207060718e-05
-0.000313912113153
1.71564090867e-05
-0.000329671919044
1.57597858733e-05
-0.00034410915008
1.44372128497e-05
-0.000357299870756
1.31907045712e-05
-0.000369319090172
1.20192047765e-05
-0.000380238732421
1.09196293769e-05
-0.000390126413923
9.88766976535e-06
-0.000399044817522
8.91839330879e-06
-0.000407051499215
8.00667222775e-06
-0.000414198980552
7.1474729868e-06
-0.000420535027947
6.33603957087e-06
-0.000426103037966
5.56800297109e-06
-0.000430942462984
4.83941820865e-06
-0.000435089246513
4.14677714526e-06
-0.000438576179613
3.48692666952e-06
-0.000441433184582
2.85699859645e-06
-0.000443687323283
2.25413198623e-06
-0.000445362480836
1.67515051135e-06
-0.000446479599717
1.11711122434e-06
-0.000447056229823
5.76621769224e-07
-0.000447107137025
5.08980114265e-08
-0.000446642977086
-4.64170125559e-07
-0.000445675747348
-9.67240984768e-07
-0.00044422324259
-1.45251729655e-06
-0.00044230363692
-1.9196194434e-06
-0.00043993348539
-2.37016684626e-06
-0.000437126951424
-2.80655064933e-06
-0.000433895469889
-3.23149997211e-06
-0.000430247575262
-3.64791452707e-06
-0.000426188812129
-4.05878496109e-06
-0.00042172171367
-4.46712181721e-06
-0.000416845852436
-4.87588666896e-06
-0.000411557976546
-5.2879029074e-06
-0.000405852242121
-5.70576365523e-06
-0.000399720549497
-6.13172349305e-06
-0.000393152983882
-6.56759883837e-06
-0.000386138351566
-7.01466725962e-06
-0.000378664794081
-7.47359495488e-06
-0.000370720448769
-7.94438464192e-06
-0.000362294115913
-8.42637494584e-06
-0.000353375877001
-8.91828309896e-06
-0.000343957604063
-9.41832021152e-06
-0.000334033286713
-9.92436707754e-06
-0.000323599105578
-1.04342343726e-05
-0.000312653172311
-1.09459894138e-05
-0.000301194867141
-1.14583652804e-05
-0.000289223701602
-1.19712289984e-05
-0.000276737650885
-1.24861184844e-05
-0.000263730900501
-1.300682177e-05
-0.000250190985578
-1.35399908138e-05
-0.00023609531527
-1.40957499331e-05
-0.000221407100658
-1.4688298996e-05
-0.000206070845639
-1.53363436953e-05
-0.000190007785287
-1.60631545725e-05
-0.000173111692267
-1.68961941004e-05
-0.00015524601639
-1.78657865892e-05
-0.000136245992467
-1.90001462412e-05
-0.000115935505547
-2.03106214849e-05
-9.41708024269e-05
-2.17648525934e-05
-7.09007382923e-05
-2.32702141024e-05
-4.62390099146e-05
-2.46618742289e-05
-2.10021535037e-05
-2.52372951583e-05
-2.10023128289e-05
1.28433519622e-05
-3.60927426592e-05
1.48409952371e-05
-1.08655831787e-05
-2.05170158406e-06
1.10640272048e-05
-3.0314550172e-05
3.52594112651e-05
-5.75092094161e-05
4.5151088e-05
-8.33648679855e-05
5.44414194481e-05
-0.000111013027919
5.8651096024e-05
-0.000140232572149
5.9194650605e-05
-0.000169356188627
5.84943388725e-05
-0.000197676357548
5.68996066489e-05
-0.000224806411045
5.46420984195e-05
-0.000250499545182
5.19165711949e-05
-0.000274606630932
4.889071343e-05
-0.000297052682902
4.57028310972e-05
-0.000317818846529
4.24616926409e-05
-0.000336927290227
3.92488176272e-05
-0.000354428642706
3.61220382639e-05
-0.000370391828185
3.3119577247e-05
-0.000384896164714
3.02641054758e-05
-0.00039802544191
2.75664757114e-05
-0.000409863697452
2.50289462452e-05
-0.000420492349443
2.26478450813e-05
-0.000429988408487
2.04156772336e-05
-0.000438423476553
1.83227283764e-05
-0.000445863335937
1.63582437311e-05
-0.000452367934508
1.45112630898e-05
-0.000457991635579
1.27711668112e-05
-0.00046278362452
1.11280220162e-05
-0.00046678840414
9.57277650812e-06
-0.000470046376077
8.09738429589e-06
-0.00047259430878
6.69470434603e-06
-0.00047446580562
5.35841770795e-06
-0.000475691726157
4.08291358301e-06
-0.000476300425794
2.86282522694e-06
-0.00047631741429
1.69213276012e-06
-0.000475764989632
5.64678944289e-07
-0.000474667983216
-5.20392197583e-07
-0.000473060787093
-1.55630751397e-06
-0.000470983703327
-2.54126329885e-06
-0.000468468667146
-3.48228887705e-06
-0.000465535163015
-4.38603321292e-06
-0.000462197602077
-5.25719487044e-06
-0.000458467591424
-6.10019210596e-06
-0.000454354521326
-6.91963840113e-06
-0.000449865605261
-7.72043383388e-06
-0.000445005790909
-8.50775000813e-06
-0.000439777639146
-9.28695801025e-06
-0.000434181256122
-1.00635296911e-05
-0.000428214272107
-1.08428957075e-05
-0.000421871921786
-1.16302820037e-05
-0.000415147204005
-1.24305104188e-05
-0.000408031167116
-1.3247793272e-05
-0.000400513284557
-1.40855145721e-05
-0.000392581952862
-1.49460361794e-05
-0.00038422505763
-1.58305278452e-05
-0.000375430618957
-1.67388651819e-05
-0.000366187438907
-1.76695975467e-05
-0.000356485739199
-1.86200297681e-05
-0.000346317691426
-1.95864160049e-05
-0.000335677809712
-2.05643014831e-05
-0.000324563098352
-2.15489999749e-05
-0.000312972917903
-2.25362290622e-05
-0.000300908468845
-2.35228756214e-05
-0.000288371865591
-2.45078986957e-05
-0.000275364720697
-2.54933323105e-05
-0.000261886232746
-2.64853837759e-05
-0.000247930725357
-2.74955749725e-05
-0.000233484702249
-2.85418547356e-05
-0.000218523387154
-2.9649698789e-05
-0.000203006835034
-3.08529853258e-05
-0.000186875982628
-3.21941006541e-05
-0.000170048944596
-3.37233319375e-05
-0.000152418310856
-3.54965279437e-05
-0.000133851761394
-3.75668136235e-05
-0.000114198488624
-3.99640222634e-05
-9.3303677762e-05
-4.26597920947e-05
-7.10525805694e-05
-4.55214551241e-05
-4.75588789913e-05
-4.81557492724e-05
-2.36058257444e-05
-4.91904793932e-05
-4.46083491899e-05
-6.5460476722e-06
-2.95467972788e-05
-2.56860713621e-05
8.27432589614e-06
-5.17467597531e-05
3.71246553828e-05
-7.34158763043e-05
5.69284860459e-05
-9.87712926379e-05
7.05064724728e-05
-0.00012407821937
7.97483200324e-05
-0.000149783155078
8.435601002e-05
-0.000176034438429
8.5445913009e-05
-0.000201961710154
8.44215906256e-05
-0.000226975487216
8.19133629334e-05
-0.000250721434246
7.83880253874e-05
-0.000272998230575
7.41933471511e-05
-0.000293707761479
6.96002251548e-05
-0.00031282327186
6.48183225293e-05
-0.000330366989321
6.00053926357e-05
-0.00034639335883
5.52751702254e-05
-0.00036097635023
5.07050143402e-05
-0.000374200044996
4.63432574207e-05
-0.000386151905055
4.22159525119e-05
-0.000396918196272
3.83327547041e-05
-0.00040658107531
3.46918145141e-05
-0.000415216916705
3.12836764905e-05
-0.000422895516184
2.80942679876e-05
-0.000429679907172
2.51071113397e-05
-0.000435626569186
2.23048987248e-05
-0.000440785860182
1.96705476332e-05
-0.000445202583444
1.7187884323e-05
-0.000448916629768
1.4842062996e-05
-0.000451963624757
1.26197665231e-05
-0.000454375474972
1.05092297567e-05
-0.000456180987783
8.50021241436e-06
-0.000457406456787
6.58388197705e-06
-0.000458075927242
4.75237893087e-06
-0.00045821141397
2.99830661607e-06
-0.000457833905945
1.31461863825e-06
-0.000456964585216
-3.04648316906e-07
-0.000455632875735
-1.85210930169e-06
-0.000453862707161
-3.32648434407e-06
-0.000451665361247
-4.73861890372e-06
-0.000449054107172
-6.0935534762e-06
-0.000446042854906
-7.39729774344e-06
-0.000442644366281
-8.65569675916e-06
-0.000438869749327
-9.87482432826e-06
-0.000434728244991
-1.106115914e-05
-0.000430227048199
-1.22216492556e-05
-0.000425371129538
-1.33636885438e-05
-0.000420163080955
-1.44950288773e-05
-0.000414603005066
-1.5623629202e-05
-0.000408688476338
-1.67574506199e-05
-0.000402414589462
-1.79041964877e-05
-0.000395774117587
-1.90710126005e-05
-0.000388757787135
-2.02641555538e-05
-0.000381354680457
-2.14886559141e-05
-0.000373552757071
-2.27479958887e-05
-0.000365339485351
-2.40438388839e-05
-0.000356702552463
-2.53758392388e-05
-0.000347630619243
-2.67415751373e-05
-0.000338114062177
-2.81366333115e-05
-0.000328145645668
-2.95548824473e-05
-0.000317721048149
-3.09889513619e-05
-0.000306839173815
-3.2430930407e-05
-0.000295502169719
-3.38732920301e-05
-0.000283715087605
-3.53100205852e-05
-0.000271485130414
-3.67379217597e-05
-0.000258820442549
-3.81580900644e-05
-0.000245728430573
-3.95774686766e-05
-0.000232213546622
-4.10105356595e-05
-0.000218274672307
-4.24808087459e-05
-0.000203902081702
-4.40223726047e-05
-0.000189073760376
-4.5681392976e-05
-0.000173751792319
-4.75161589423e-05
-0.000157878904453
-4.95963148481e-05
-0.000141374896955
-5.20006367222e-05
-0.000124134099833
-5.48077204935e-05
-0.000106023924635
-5.8074314694e-05
-8.68897635179e-05
-6.17940788224e-05
-6.65877884449e-05
-6.58235429388e-05
-4.50698176506e-05
-6.96738095171e-05
-2.26230861184e-05
-7.16374815038e-05
-6.72314594411e-05
-2.56272687354e-05
-3.91968226643e-06
-5.17988247151e-05
3.44458182233e-05
-7.54035908723e-05
6.07293844219e-05
-9.90925794051e-05
8.06174459516e-05
-0.000123251179066
9.4665048609e-05
-0.000147171424886
0.000103668547207
-0.00017081256609
0.000107997135248
-0.000194092525617
0.000108725858221
-0.000216621567646
0.000106950618192
-0.000238092348064
0.000103384129025
-0.0002583051218
9.86007842376e-05
-0.00027715745986
9.3045670601e-05
-0.000294619922732
8.70626732852e-05
-0.000310712741878
8.09111276104e-05
-0.000325487155111
7.47797920941e-05
-0.000339011467509
6.8799469812e-05
-0.000351361212471
6.30547470587e-05
-0.000362612621046
5.75946548575e-05
-0.000372838620329
5.24419413709e-05
-0.000382106651878
4.76007769514e-05
-0.000390477728453
4.30628825388e-05
-0.000398006277104
3.88122176287e-05
-0.000404740444517
3.48284285851e-05
-0.000410722645036
3.10893059156e-05
-0.000415990219093
2.75724674173e-05
-0.000420576115617
2.42564394432e-05
-0.000424509554644
2.11213190537e-05
-0.000427816652875
1.81491573206e-05
-0.000430521007006
1.5324116977e-05
-0.00043264421796
1.26324371348e-05
-0.000434206343836
1.00623347277e-05
-0.000435226308353
7.60384271062e-06
-0.000435722043707
5.24811026364e-06
-0.000435710510068
2.9867684057e-06
-0.000435210516972
8.14620491375e-07
-0.0004342463183
-1.26885289479e-06
-0.000432836737887
-3.26169630448e-06
-0.00043099532655
-5.16790343605e-06
-0.000428738631479
-6.99532265028e-06
-0.000426081687718
-8.75050736824e-06
-0.000423038740347
-1.04402563706e-05
-0.000419622810677
-1.20716393914e-05
-0.000415845412046
-1.36522372209e-05
-0.000411716295851
-1.51902915192e-05
-0.000407243202133
-1.66947606037e-05
-0.000402431623042
-1.81752873732e-05
-0.000397284592685
-1.96420805471e-05
-0.000391802530886
-2.11057145796e-05
-0.000385983160067
-2.25768467107e-05
-0.00037982152411
-2.40658601264e-05
-0.000373310125575
-2.55824406362e-05
-0.000366439203722
-2.71351094649e-05
-0.000359197158124
-2.87307355369e-05
-0.000351571123816
-3.03740669499e-05
-0.000343547680939
-3.20673206628e-05
-0.000335113679725
-3.38098822813e-05
-0.000326257134319
-3.55981647243e-05
-0.000316968135144
-3.74256798044e-05
-0.00030723970651
-3.92833609623e-05
-0.000297068535226
-4.11601758629e-05
-0.000286455486714
-4.30440349063e-05
-0.000275405830464
-4.49230077662e-05
-0.000263929096187
-4.67868172777e-05
-0.000252038532902
-4.86285509785e-05
-0.000239750066867
-5.04466249287e-05
-0.000227080897888
-5.22467097362e-05
-0.000214047426292
-5.40440820422e-05
-0.000200662879971
-5.58654327108e-05
-0.000186934792532
-5.77505402236e-05
-0.000172861172645
-5.97550957631e-05
-0.000158427101308
-6.19503163764e-05
-0.000143601866634
-6.44216391323e-05
-0.000128334113456
-6.72684852344e-05
-0.000112546487141
-7.05954490236e-05
-9.61292247354e-05
-7.44916866163e-05
-7.8936465331e-05
-7.8986944023e-05
-6.07980903151e-05
-8.39620308937e-05
-4.15010065382e-05
-8.89710489738e-05
-2.10093043643e-05
-9.21292014436e-05
-8.82409020856e-05
-3.39937042863e-05
3.00739718456e-05
-6.16341751884e-05
6.20862545184e-05
-8.73639127333e-05
8.64590944189e-05
-0.000111974385898
0.000105227896156
-0.000135594563467
0.000118285207176
-0.000158156087223
0.000126230055069
-0.000179780453779
0.000129621488356
-0.000200478069776
0.000129423461938
-0.000220122310402
0.000126594847245
-0.000238618971377
0.000121880778416
-0.000255918322606
0.000115900124059
-0.000272015906632
0.000109143243143
-0.000286941577188
0.000101988332701
-0.000300746390814
9.47159302968e-05
-0.000313491413712
8.75248046651e-05
-0.000325239733388
8.05477796301e-05
-0.000336051565229
7.38665698469e-05
-0.000345981781207
6.75248624231e-05
-0.000355079077617
6.15392302582e-05
-0.000363386109701
5.59078022181e-05
-0.000370940099807
5.06168666958e-05
-0.000377773610438
4.56457229847e-05
-0.000383915313297
4.09701269298e-05
-0.000389390674184
3.65646628573e-05
-0.000394222529144
3.24043190237e-05
-0.000398431582445
2.84654898084e-05
-0.000402036843585
2.47265776402e-05
-0.000405055984722
2.116829615e-05
-0.000407505733968
1.77738640583e-05
-0.000409402135798
1.45288368423e-05
-0.000410760825038
1.14210217192e-05
-0.000411597280324
8.4402955558e-06
-0.000411926928006
5.5777550851e-06
-0.000411764899277
2.82473635192e-06
-0.000411125666446
1.75383624576e-07
-0.000410034493525
-2.36003052483e-06
-0.000408514582044
-4.78161347679e-06
-0.000406578012691
-7.10447940816e-06
-0.000404239780297
-9.3335629256e-06
-0.000401514877348
-1.14754193544e-05
-0.000398417878177
-1.35372660837e-05
-0.000394962450587
-1.55270788748e-05
-0.000391160966273
-1.74537351475e-05
-0.000387024145941
-1.93271269887e-05
-0.000382560722645
-2.11582009457e-05
-0.000377777123329
-2.29589054182e-05
-0.000372677185972
-2.47420387115e-05
-0.000367261932529
-2.6520990665e-05
-0.000361529426552
-2.83093775733e-05
-0.00035547474164
-3.01205719188e-05
-0.000349090070908
-3.19671406634e-05
-0.000342364998724
-3.38602131182e-05
-0.000335286954059
-3.58088142813e-05
-0.00032784184858
-3.7819208878e-05
-0.000320014893888
-3.98943146189e-05
-0.000311791572058
-4.20332459231e-05
-0.000303158718608
-4.42310629734e-05
-0.000294105651421
-4.64787944512e-05
-0.000284625273669
-4.87637892594e-05
-0.000274715049815
-5.10704529761e-05
-0.000264377771592
-5.33813695085e-05
-0.000253622025861
-5.56788126284e-05
-0.00024246222752
-5.79466778155e-05
-0.000230918335419
-6.01725079779e-05
-0.000219014823706
-6.23502043382e-05
-0.000206779645388
-6.44819582711e-05
-0.000194242145585
-6.65816544406e-05
-0.000181430620128
-6.86770330804e-05
-0.000168370792257
-7.08104450902e-05
-0.000155081144181
-7.30448232964e-05
-0.000141569269668
-7.54622726497e-05
-0.00012783065715
-7.81603372649e-05
-0.000113842649206
-8.12565832212e-05
-9.95570491995e-05
-8.48811455996e-05
-8.48919345273e-05
-8.91569035762e-05
-6.97188582419e-05
-9.41601308797e-05
-5.38632684416e-05
-9.98177150714e-05
-3.7022847219e-05
-0.000105811516747
-1.89115771779e-05
-0.000110240695209
-0.000107152469814
-3.43669089025e-05
6.44408063167e-05
-6.44401972894e-05
9.21595093598e-05
-9.15604260451e-05
0.000113579299196
-0.0001164802538
0.000130147704108
-0.000139520319119
0.000141325255724
-0.000160870459308
0.000147580181042
-0.000180773823382
0.000149524840195
-0.000199381906063
0.000148031533767
-0.000216756030378
0.000143968961475
-0.000232951618902
0.000138076357371
-0.000248028418839
0.000130976914692
-0.000262052893559
0.000123167708908
-0.000275093719986
0.000115029150464
-0.000287216545407
0.000106838747535
-0.000298480212582
9.87884641213e-05
-0.00030893505069
9.10026106674e-05
-0.000318622889572
8.35544022671e-05
-0.000327578123106
7.6480090245e-05
-0.000335829192215
6.97902943308e-05
-0.000343400052117
6.34786578423e-05
-0.000350311400533
5.75282114892e-05
-0.000356581595721
5.19159152337e-05
-0.000362227300847
4.66158296771e-05
-0.000367263917602
4.16012777798e-05
-0.000371705871106
3.68462711115e-05
-0.000375566828362
3.23264460216e-05
-0.000378859895507
2.80196439981e-05
-0.000381597814196
2.39062142262e-05
-0.000383793014061
1.99690633859e-05
-0.000385457901178
1.61937233724e-05
-0.000386605115049
1.25682348595e-05
-0.000387247404756
9.08258421858e-06
-0.000387398030724
5.72837961481e-06
-0.000387072638661
2.49934227896e-06
-0.000386290674501
-6.06583199493e-07
-0.000385067928778
-3.58277975784e-06
-0.000383418659682
-6.43088698376e-06
-0.00038136078904
-9.16235558285e-06
-0.000378910913483
-1.17834451589e-05
-0.00037608528665
-1.43010542257e-05
-0.000372899717488
-1.67228446383e-05
-0.000369369261576
-1.9057545753e-05
-0.000365507829603
-2.1315179629e-05
-0.000361327767879
-2.35072029902e-05
-0.000356839433085
-2.5646551737e-05
-0.000352050779764
-2.7747576687e-05
-0.000346966980728
-2.98258575975e-05
-0.000341590107801
-3.18978855771e-05
-0.000335918903781
-3.39806056749e-05
-0.00032994868238
-3.60908197436e-05
-0.000323671391976
-3.8244459804e-05
-0.000317075876833
-4.04557595724e-05
-0.000310148360826
-4.27363641377e-05
-0.000302873168543
-4.5094437816e-05
-0.000295233675632
-4.75338468978e-05
-0.00028721347046
-5.00534934202e-05
-0.000278797681937
-5.26468965814e-05
-0.000269974388948
-5.53021354841e-05
-0.00026073603881
-5.80021901125e-05
-0.000251080738457
-6.07258068825e-05
-0.000241013300526
-6.34488635676e-05
-0.00023054605447
-6.61461174819e-05
-0.000219698902888
-6.87938907312e-05
-0.000208499549337
-7.13719253067e-05
-0.000196982021811
-7.3867798043e-05
-0.000185186307679
-7.62777407373e-05
-0.000173156131508
-7.86119010761e-05
-0.000160935483627
-8.08977534536e-05
-0.000148569421597
-8.31765814436e-05
-0.000136097541371
-8.55167799791e-05
-0.000123548531593
-8.80113613699e-05
-0.00011094200756
-9.07669433207e-05
-9.82819828663e-05
-9.39166947555e-05
-8.55467033601e-05
-9.76165176117e-05
-7.268177437e-05
-0.00010202193178
-5.95803519277e-05
-0.000107261647061
-4.60770294793e-05
-0.000113321137611
-3.18602120728e-05
-0.000120028478968
-1.64475860426e-05
-0.000125653294499
-0.000123600168391
-3.3251949616e-05
9.76927485537e-05
-6.36885910634e-05
0.000122596132174
-9.10419056212e-05
0.000140932594931
-0.000115688238346
0.0001547940198
-0.000137966222417
0.000163603224806
-0.00015818277216
0.00016779671778
-0.00017664609535
0.000167988152059
-0.000193601939276
0.00016498736767
-0.000209232018246
0.000159599031417
-0.000223689283016
0.000152533613831
-0.000237103532012
0.000144391156013
-0.000249584251356
0.000135648421104
-0.000261220804
0.000126665696553
-0.000272083284869
0.000117701222407
-0.000282224647242
0.000108929821163
-0.000291683813593
0.000100461772324
-0.000300489116714
9.23597014252e-05
-0.000308661480449
8.46524506933e-05
-0.000316216989538
7.73458008682e-05
-0.000323168745691
7.04304120923e-05
-0.000329528077167
6.38875417257e-05
-0.000335305253136
5.76930905195e-05
-0.000340509867081
5.18204434728e-05
-0.000345151035618
4.62424465854e-05
-0.000349237511537
4.09327476708e-05
-0.000352777774108
3.5866709501e-05
-0.000355780144635
3.10220156305e-05
-0.000358252925214
2.6378996024e-05
-0.000360204629562
2.19207689577e-05
-0.000361644147406
1.7633242355e-05
-0.000362580859325
1.35049477022e-05
-0.000363024719797
9.52644532256e-06
-0.000362986800514
5.69046049926e-06
-0.000362481606905
1.99414824833e-06
-0.000361526560554
-1.56163072806e-06
-0.000360136602139
-4.97274018521e-06
-0.00035832540632
-8.24208585265e-06
-0.000356110215393
-1.13775506452e-05
-0.000353508373718
-1.43852922502e-05
-0.000350537540576
-1.72718940873e-05
-0.000347215378286
-2.00450151439e-05
-0.00034355911345
-2.27138202995e-05
-0.000339585038727
-2.52892657575e-05
-0.000335307985073
-2.77842697321e-05
-0.000330740782925
-3.02137688605e-05
-0.000325893729
-3.25946474689e-05
-0.000320774082802
-3.49455227498e-05
-0.000315385623056
-3.72863663842e-05
-0.000309728303736
-3.96379483961e-05
-0.00030379805487
-4.20210943766e-05
-0.000297586779247
-4.44557638129e-05
-0.000291082588804
-4.69599810265e-05
-0.000284270319612
-4.95486672264e-05
-0.000277132351453
-5.22324426867e-05
-0.000269649724321
-5.50165137723e-05
-0.000261803535284
-5.78997250182e-05
-0.000253576592122
-6.08738852484e-05
-0.000244955168686
-6.39236070445e-05
-0.000235930825964
-6.70265836022e-05
-0.000226502137471
-7.01545485449e-05
-0.000216675936668
-7.32751198767e-05
-0.000206468848201
-7.63532638093e-05
-0.000195906769052
-7.93560299449e-05
-0.000185026555059
-8.22522016273e-05
-0.000173872916768
-8.50215008694e-05
-0.000162499429622
-8.76512944287e-05
-0.000150966513814
-9.01448857394e-05
-0.000139334632677
-9.25297048639e-05
-0.000127669927648
-9.48413592551e-05
-0.000116035429077
-9.71513528556e-05
-0.000104481398277
-9.95654692333e-05
-9.30499703341e-05
-0.000102198451719
-8.17705249362e-05
-0.000105196224619
-7.06449376704e-05
-0.000108742195891
-5.96426801086e-05
-0.00011302428447
-4.86818926832e-05
-0.000118222538335
-3.7603137253e-05
-0.000124399978569
-2.61417795249e-05
-0.000131489861335
-1.36814934503e-05
-0.000138113784252
-0.000137281637817
-3.17346427659e-05
0.000129427353579
-6.12282991125e-05
0.000152089767552
-8.78658432843e-05
0.000167570122102
-0.000111718238132
0.000178646399599
-0.000133041380651
0.000184926354025
-0.000152151107962
0.000186906433379
-0.000169374645063
0.000185211678929
-0.000185004067795
0.000180616781424
-0.000199284048044
0.00017387900375
-0.000212420463936
0.000165670022715
-0.000224580402569
0.000156551088432
-0.000235894566468
0.000146962579549
-0.000246460716089
0.000137231841434
-0.000256348760951
0.000127589263274
-0.000265606726849
0.000118187783782
-0.000274266673635
0.000109121716594
-0.00028234981763
0.000100442843623
-0.000289870482892
9.21731149047e-05
-0.000296838848393
8.43141659961e-05
-0.00030326267637
7.68542403665e-05
-0.000309148296359
6.97731625917e-05
-0.000314501112011
6.30459075913e-05
-0.000319325847951
5.66451812746e-05
-0.000323626690164
5.05432910442e-05
-0.000327407414348
4.47134743956e-05
-0.000330671536982
3.91308349037e-05
-0.000333422510126
3.37729916964e-05
-0.000335663989578
2.86204784641e-05
-0.000337400096995
2.36568793545e-05
-0.000338635674035
1.88688222551e-05
-0.000339376537294
1.42458136147e-05
-0.000339629567062
9.77947740638e-06
-0.000339402782658
5.46367797755e-06
-0.000338707551198
1.2989180828e-06
-0.000337559940002
-2.70924140186e-06
-0.000335975552672
-6.5571279557e-06
-0.000333967739347
-1.0249900646e-05
-0.000331553307337
-1.37919853283e-05
-0.000328750809496
-1.71877940152e-05
-0.000325579977903
-2.04427310244e-05
-0.00032206112216
-2.35638776816e-05
-0.000318214520971
-2.6560429903e-05
-0.000314059791073
-2.94440057113e-05
-0.000309615232588
-3.22288400947e-05
-0.000304897154633
-3.49318605444e-05
-0.000299919194736
-3.75726231403e-05
-0.000294691655734
-4.01730796289e-05
-0.000289220897624
-4.27571446922e-05
-0.000283508832358
-4.53500362561e-05
-0.000277552581715
-4.79773702557e-05
-0.000271344369899
-5.06640035584e-05
-0.000264871712848
-5.34326689507e-05
-0.00025811795079
-5.63024630628e-05
-0.000251063185389
-5.92872449609e-05
-0.000243685599739
-6.23941391947e-05
-0.000235963125576
-6.56222419007e-05
-0.000227875538548
-6.89615176336e-05
-0.000219406622198
-7.23925712529e-05
-0.000210546443815
-7.5886812184e-05
-0.000201293834639
-7.94072100098e-05
-0.000191657299333
-8.29117096798e-05
-0.000181658580762
-8.63520390827e-05
-0.00017132957451
-8.9685094947e-05
-0.000160718100139
-9.28637374214e-05
-0.000149880549896
-9.58591144812e-05
-0.000138885395938
-9.86465145548e-05
-0.00012781280812
-0.000101217541534
-0.000116741072795
-0.000103601510605
-0.000105758804724
-0.000105823699021
-9.49550595664e-05
-0.000107955171842
-8.44063444584e-05
-0.000110114261181
-7.41773917265e-05
-0.00011242748424
-6.43225286393e-05
-0.000115051173086
-5.4867288024e-05
-0.000118197526607
-4.58001634577e-05
-0.000122091504821
-3.70681948426e-05
-0.000126954594944
-2.85085217599e-05
-0.000132959744749
-1.99255091379e-05
-0.000140073012132
-1.06389671352e-05
-0.000147400275119
-0.000147920711455
-2.98427097539e-05
0.000159270064305
-5.78454199582e-05
0.000180092467069
-8.3237992771e-05
0.000192962682258
-0.000105954135803
0.000201362530344
-0.000126176888869
0.000205149095796
-0.000144189532621
0.000204919067055
-0.000160308112161
0.000201330249585
-0.000174835790331
0.000195144451847
-0.000188039834797
0.000187083041509
-0.00020014604493
0.000177776227098
-0.000211334873759
0.000167739912421
-0.000221743409754
0.000157371111556
-0.000231470711734
0.000146959140285
-0.000240585203217
0.000136703752443
-0.000249132432842
0.00012673501193
-0.000257141982317
0.00011713126538
-0.000264632884542
0.000107933745959
-0.000271617442601
9.9157673805e-05
-0.000278103674724
9.08003996758e-05
-0.000284096749388
8.28473172131e-05
-0.000289599777455
7.5276193423e-05
-0.000294614251996
6.80603853825e-05
-0.000299140336921
6.11712698735e-05
-0.000303177123644
5.4580081779e-05
-0.000306722931739
4.82592867742e-05
-0.000309775668005
4.21835756599e-05
-0.000312333197804
3.63305261236e-05
-0.000314393846621
3.06811319898e-05
-0.000315956716393
2.52197538116e-05
-0.00031702206436
1.99341748007e-05
-0.000317591669646
1.48154233073e-05
-0.000317669033824
9.85684576839e-06
-0.000317258843994
5.05349189803e-06
-0.000316365395129
4.05472324499e-07
-0.00031500688332
-4.06775096055e-06
-0.000313202542369
-8.36146760908e-06
-0.000310962820786
-1.24896220714e-05
-0.000308305037729
-1.64497694131e-05
-0.000305249683891
-2.02431502387e-05
-0.000301819265685
-2.38731530055e-05
-0.000298037456238
-2.73456924606e-05
-0.000293928352882
-3.0669540173e-05
-0.000289515738849
-3.38566284189e-05
-0.000284822311603
-3.69222778085e-05
-0.00027986886872
-3.98853158922e-05
-0.00027467345819
-4.27680481914e-05
-0.000269250518088
-4.55960365462e-05
-0.000263610050825
-4.83976311497e-05
-0.000257756895895
-5.12032130324e-05
-0.000251690175466
-5.40441152391e-05
-0.000245403023379
-5.69511831851e-05
-0.000238882688992
-5.99530338206e-05
-0.000232111053457
-6.30741322244e-05
-0.000225065697821
-6.6332637179e-05
-0.000217721490941
-6.97383856182e-05
-0.000210052485989
-7.32912890944e-05
-0.00020203465676
-7.69793915483e-05
-0.000193648578345
-8.07786967189e-05
-0.000184881924301
-8.46535153364e-05
-0.000175733861526
-8.85553240438e-05
-0.000166213482957
-9.24321420067e-05
-0.00015634922893
-9.62163488548e-05
-0.000146177977859
-9.98564051906e-05
-0.000135760682185
-0.000103281094407
-0.000125166348912
-0.000106453512668
-0.000114479041107
-0.000109333889895
-0.000103800950478
-0.00011189570192
-9.32319114805e-05
-0.000114170620415
-8.28849016704e-05
-0.000116170780129
-7.28736045597e-05
-0.000117966542031
-6.33103537058e-05
-0.000119677585636
-5.42862398604e-05
-0.000121451675241
-4.5879632811e-05
-0.00012345786
-3.81443520807e-05
-0.000125932892013
-3.10860990771e-05
-0.000129149845005
-2.46814133282e-05
-0.000133359374383
-1.87658735165e-05
-0.000138875355836
-1.31992553416e-05
-0.000145639635719
-7.30756920659e-06
-0.000153292164461
-0.000155228244907
-2.77191367084e-05
0.000186989178333
-5.39779442388e-05
0.000206351261799
-7.78710759429e-05
0.000216855802984
-9.92712167002e-05
0.000222762660906
-0.000118312974527
0.000224190844272
-0.000135241483412
0.000221847567526
-0.000150347975062
0.000216436733817
-0.000163925031531
0.000208721501892
-0.000176237460702
0.000199395465226
-0.000187509892577
0.000189048654474
-0.000197921033923
0.000178151050184
-0.000207605538958
0.000167055613927
-0.000216660168522
0.000156013768062
-0.000225151881503
0.00014519546453
-0.000233125782718
0.000134708913091
-0.000240611731574
0.00012461721503
-0.000247629196676
0.000114951212633
-0.000254190482659
0.000105718962122
-0.000260302714812
9.69126348392e-05
-0.000265969014707
8.85136207509e-05
-0.000271189227626
8.04964105212e-05
-0.000275960465972
7.28316283848e-05
-0.000280277613075
6.54884220259e-05
-0.000284133850789
5.84363248725e-05
-0.000287521253588
5.1646695227e-05
-0.000290431433157
4.50937610966e-05
-0.000292856200004
3.87552990173e-05
-0.000294787961041
3.2612899175e-05
-0.000296220430603
2.66522295605e-05
-0.000297149236101
2.08629864709e-05
-0.000297571902912
1.52380962174e-05
-0.000297488368383
9.77331710776e-06
-0.00029690273124
4.46786035246e-06
-0.000295823861495
-6.73392411494e-07
-0.000294258305294
-5.63330305932e-06
-0.00029221495281
-1.04048170711e-05
-0.000289712530444
-1.49920425274e-05
-0.000286771821861
-1.93904773771e-05
-0.000283416373977
-2.35985988186e-05
-0.000279671927576
-2.76176015902e-05
-0.000275565805521
-3.14518182087e-05
-0.000271126223033
-3.51091280449e-05
-0.000266381528295
-3.86013302603e-05
-0.000261359362248
-4.19444528912e-05
-0.00025608572679
-4.51589623758e-05
-0.000250583963951
-4.82698242993e-05
-0.000244873667223
-5.13063488752e-05
-0.00023896958032
-5.43017362772e-05
-0.000232880572025
-5.72922422382e-05
-0.000226608770312
-6.03159408403e-05
-0.000220149027439
-6.34109528846e-05
-0.000213488899094
-6.66131921302e-05
-0.00020660906317
-6.99540010938e-05
-0.00019948449263
-7.34572436106e-05
-0.000192086474047
-7.71364428665e-05
-0.000184384492159
-8.09933121e-05
-0.000176349944419
-8.50139828233e-05
-0.000167959750375
-8.91689365874e-05
-0.000159197767595
-9.34155460387e-05
-0.000150064599791
-9.7688542728e-05
-0.000140567470043
-0.000101929324994
-0.000130744509992
-0.00010603936595
-0.000120635205806
-0.00010996576948
-0.000110316035375
-0.000113600328474