/*--------------------------------*- C++ -*----------------------------------*\
| =========                 |                                                 |
| \\      /  F ield         | OpenFOAM: The Open Source CFD Toolbox           |
|  \\    /   O peration     | Version:  v1806                                 |
|   \\  /    A nd           | Web:      www.OpenFOAM.com                      |
|    \\/     M anipulation  |                                                 |
\*---------------------------------------------------------------------------*/
FoamFile
{
    version     2.0;
    format      ascii;
    class       surfaceScalarField;
    location    "200";
    object      phi;
}
// * * * * * * * * * * * * * * * * * * * * * * * * * * * * * * * * * * * * * //

dimensions      [0 3 -1 0 0 0 0];
oriented        oriented;


internalField   nonuniform List<scalar> 
12640
(
1.42777496857e-05
-1.42782695942e-05
8.77522599579e-06
5.5020664448e-06
-1.35233984514e-05
2.22980959022e-05
-4.52368016463e-05
3.17130523877e-05
-7.84671392484e-05
3.32300534369e-05
-0.000111850983886
3.33835941882e-05
-0.000144511730485
3.26605007479e-05
-0.000175784809312
3.12728389869e-05
-0.000205205344042
2.94202911638e-05
-0.000232476197244
2.72706072619e-05
-0.00025743797007
2.49615196227e-05
-0.000280041161718
2.26029323816e-05
-0.000300321053548
2.02796246968e-05
-0.000318375501195
1.80541738162e-05
-0.000334345852672
1.59700711597e-05
-0.000348400949701
1.40548110088e-05
-0.00036072413346
1.23228934913e-05
-0.000371502992866
1.07785649922e-05
-0.00038092159483
9.41830561629e-06
-0.000389154852354
8.23295857501e-06
-0.000396364711558
7.20956034538e-06
-0.000402697823277
6.3328116433e-06
-0.000408284391201
5.58626961387e-06
-0.000413237917933
4.95322843462e-06
-0.000417655585927
4.41737277796e-06
-0.000421619078099
3.96319804974e-06
-0.000425195642496
3.57627426874e-06
-0.000428439292277
3.24336169921e-06
-0.000431392017524
2.95244172801e-06
-0.000434084942976
2.6926449111e-06
-0.000436539356503
2.45413791812e-06
-0.000438767555841
2.22792786106e-06
-0.000440773569065
2.00574715785e-06
-0.00044255361374
1.77978418989e-06
-0.000444096031151
1.54216320452e-06
-0.000445380642709
1.28436549854e-06
-0.000446378432794
9.97552268254e-07
-0.000447051681147
6.73022073954e-07
-0.000447354509937
3.02613554992e-07
-0.000447234101553
-1.20607897783e-07
-0.000446629708888
-6.0457749616e-07
-0.000445472943402
-1.15693007877e-06
-0.000443688206025
-1.7848835603e-06
-0.000441191069714
-2.49725818622e-06
-0.000437887820743
-3.30334918909e-06
-0.000433675428439
-4.2124650638e-06
-0.000428442019602
-5.2334578495e-06
-0.000422068012541
-6.37402654777e-06
-0.000414428202049
-7.63980544568e-06
-0.000405395045036
-9.03312092567e-06
-0.000394843460978
-1.05515234917e-05
-0.000382657416369
-1.21859516979e-05
-0.000368738209158
-1.39190886501e-05
-0.000353013786066
-1.57242716628e-05
-0.000335448795233
-1.756481022e-05
-0.000316054611385
-1.93939690272e-05
-0.000294899489781
-2.11548744904e-05
-0.000272116786186
-2.27824227304e-05
-0.000247910810949
-2.42056596528e-05
-0.000222558816298
-2.53516476264e-05
-0.000196406163453
-2.61522766909e-05
-0.000169863044697
-2.65427032732e-05
-0.000143396714869
-2.6465888252e-05
-0.000117531379593
-2.58648297741e-05
-9.28194748478e-05
-2.4711331233e-05
-6.97926905059e-05
-2.30260780026e-05
-4.89491381321e-05
-2.08427047664e-05
-3.07067213054e-05
-1.82414255821e-05
-1.54553817616e-05
-1.52499061937e-05
-3.27512790112e-06
-1.21781281036e-05
6.03738873582e-06
-9.31001866986e-06
1.22625940912e-05
-6.22278648986e-06
1.54891263153e-05
-3.22370945578e-06
1.61616604823e-05
-6.69701290892e-07
1.46944417225e-05
1.47010067611e-06
1.15704250865e-05
3.12718868037e-06
7.4301560775e-06
4.14256714177e-06
3.14574746928e-06
4.2870041319e-06
2.05700074466e-07
2.95070663261e-06
2.07144011732e-07
-1.24623671614e-05
-1.81653977843e-06
-4.09666313269e-05
3.40060470791e-05
-6.98576866007e-05
5.11889603815e-05
-0.000100217829218
6.20730465649e-05
-0.000133092328592
6.61043906982e-05
-0.000166453791702
6.67448977096e-05
-0.000199037990745
6.52445160517e-05
-0.000230063268098
6.22979302965e-05
-0.000259032388351
5.83892020557e-05
-0.000285650059893
5.38880663975e-05
-0.000309773469643
4.90846948222e-05
-0.000331375762651
4.42049878266e-05
-0.0003505165712
3.94201752941e-05
-0.000367317391291
3.48547340013e-05
-0.000381941249389
3.0593651604e-05
-0.000394576040792
2.66893245201e-05
-0.000405421350731
2.31679109844e-05
-0.000414678201525
2.00351249061e-05
-0.000422541500518
1.72813025169e-05
-0.00042919464053
1.48857995456e-05
-0.000434806027118
1.28206399741e-05
-0.000439527037924
1.10535195602e-05
-0.000443491210079
9.55013413103e-06
-0.000446814238091
8.27595339765e-06
-0.000449594644922
7.19747472855e-06
-0.000451914802124
6.28305497198e-06
-0.000453842193879
5.50336646577e-06
-0.000455430759346
4.83163178907e-06
-0.000456722241356
4.24363120398e-06
-0.000457747429132
3.71754365003e-06
-0.00045852718249
3.23360685073e-06
-0.000459073543146
2.77400696202e-06
-0.000459390600773
2.3225293014e-06
-0.000459475002709
1.86391343019e-06
-0.0004593161441
1.38303981473e-06
-0.000458895448009
8.63408236581e-07
-0.000458184520822
2.86374640157e-07
-0.000457153210382
-3.5853231201e-07
-0.000455775455099
-1.07537101128e-06
-0.000454017184944
-1.87909716672e-06
-0.000451831800701
-2.79016161084e-06
-0.00044916177997
-3.82713620465e-06
-0.000445938051713
-5.00877313217e-06
-0.000442081754689
-6.35369809931e-06
-0.000437504468251
-7.88074993592e-06
-0.000432108326971
-9.60869960677e-06
-0.000425786324974
-1.1555520749e-05
-0.000418423204314
-1.37371861761e-05
-0.000409897153685
-1.61658594402e-05
-0.000400082865444
-1.88473911182e-05
-0.000388856182289
-2.17781498074e-05
-0.00037610051654
-2.49415399261e-05
-0.000361714779092
-2.83047071751e-05
-0.00034562303724
-3.18158730358e-05
-0.000327785041282
-3.54026214218e-05
-0.000308206969483
-3.89718337456e-05
-0.000286950807106
-4.24107820722e-05
-0.000264142628522
-4.55903244948e-05
-0.000239978149135
-4.83698151167e-05
-0.000214722066167
-5.06073861087e-05
-0.000188710569811
-5.21633806391e-05
-0.000162350477821
-5.29023838043e-05
-0.000136105236325
-5.27106502678e-05
-0.000110463364221
-5.15061812526e-05
-8.59239224495e-05
-4.92501303742e-05
-6.30144562406e-05
-4.59348022914e-05
-4.22260220865e-05
-4.16302241844e-05
-2.39733360321e-05
-3.6493036222e-05
-8.44517233447e-06
-3.07767146133e-05
4.04840166178e-06
-2.46701772988e-05
1.33498378329e-05
-1.86098186716e-05
1.96160412515e-05
-1.24872058184e-05
2.31817461679e-05
-6.78741254322e-06
2.42352615616e-05
-1.72063903665e-06
2.29607166949e-05
2.74708772168e-06
1.97814981674e-05
6.30840746828e-06
1.52325433779e-05
8.69395520934e-06
9.92992922618e-06
9.59267557717e-06
4.36796217727e-06
8.51348280819e-06
4.58139545203e-06
-3.62502261544e-05
3.44335717888e-05
-6.61020644255e-05
6.385774376e-05
-9.70027428583e-05
8.20895011741e-05
-0.000127872395502
9.29425599325e-05
-0.000159066173308
9.729802683e-05
-0.000189741110151
9.74196774415e-05
-0.000219094884007
9.4598120684e-05
-0.000246563239898
8.97660979055e-05
-0.000271798100585
8.36238613694e-05
-0.000294623749195
7.6713495241e-05
-0.000314995853372
6.94565670173e-05
-0.000332966729889
6.21756153292e-05
-0.00034865647036
5.51096560891e-05
-0.000362229429394
4.84274183407e-05
-0.000373875538625
4.2239477697e-05
-0.00038379590018
3.66093905986e-05
-0.000392192022078
3.15637316148e-05
-0.000399258106455
2.71008987613e-05
-0.000405175804374
2.31986868795e-05
-0.00041011096325
1.98206388283e-05
-0.000414211909914
1.69212666108e-05
-0.000417608915338
1.44502020595e-05
-0.000420414488551
1.23553862037e-05
-0.000422724273058
1.05854166529e-05
-0.000424618265384
9.09114924353e-06
-0.000426162204991
7.82667885567e-06
-0.000427409032492
6.74988262875e-06
-0.000428400295424
5.82258693823e-06
-0.000429167428393
5.010460971e-06
-0.000429732794921
4.28261125274e-06
-0.000430110919889
3.61143703517e-06
-0.000430309305078
2.97210171553e-06
-0.000430328929156
2.341866482e-06
-0.000430164907021
1.6996084555e-06
-0.000429806615569
1.02446850305e-06
-0.000429237856608
2.94374798538e-07
-0.000428442751159
-5.09000450733e-07
-0.000427403819429
-1.39772555202e-06
-0.000426084861135
-2.39458309319e-06
-0.000424436288642
-3.52791172853e-06
-0.000422405557133
-4.82112374261e-06
-0.000419933252817
-6.29965494433e-06
-0.000416952213264
-7.99001135714e-06
-0.000413386560467
-9.91952878825e-06
-0.000409151223019
-1.21162458022e-05
-0.000404151597333
-1.46084588012e-05
-0.000398283437649
-1.7423791903e-05
-0.000391433182787
-2.05875239885e-05
-0.000383479246435
-2.41198550345e-05
-0.000374294648668
-2.80320162264e-05
-0.000363751385775
-3.23214148216e-05
-0.000351726758862
-3.69661347586e-05
-0.000338111878517
-4.19195272471e-05
-0.000322822105426
-4.71055499549e-05
-0.000305808340956
-5.24162592867e-05
-0.000287068686955
-5.77113215086e-05
-0.000266658893681
-6.28203782405e-05
-0.000244699413958
-6.75495671735e-05
-0.000221380651125
-7.16883088148e-05
-0.000196963596232
-7.50241334503e-05
-0.000171786059877
-7.73405774648e-05
-0.000146264561959
-7.84234876627e-05
-0.000120853533501
-7.81212386355e-05
-9.60292113624e-05
-7.63299699652e-05
-7.22977037259e-05
-7.29810212247e-05
-5.01801007546e-05
-6.80516644076e-05
-3.01544713313e-05
-6.16549902777e-05
-1.26339492642e-05
-5.40125538032e-05
2.00083558027e-06
-4.54104696383e-05
1.36672607149e-05
-3.63356408955e-05
2.21282563165e-05
-2.70698513146e-05
2.77515908862e-05
-1.81093633111e-05
3.07150133631e-05
-9.74904169708e-06
3.12487458159e-05
-2.25254095552e-06
2.95075204278e-05
4.4901836314e-06
2.58463710325e-05
9.97145380571e-06
2.06321808268e-05
1.39091286697e-05
1.42581653847e-05
1.59673031096e-05
7.07784086967e-06
1.57002892172e-05
1.16576526857e-05
-3.98848617137e-05
7.43180361991e-05
-7.49327434497e-05
9.89054223149e-05
-0.000107400116269
0.000114556705043
-0.000138108639159
0.000123650922992
-0.000167426063021
0.000126615285657
-0.000195141265991
0.000125134706466
-0.000220945451532
0.000120402117211
-0.000244597150651
0.000113417594002
-0.000265963834942
0.000104990325543
-0.000285017738296
9.57671639429e-05
-0.000301815036343
8.62536135768e-05
-0.00031647232962
7.68326434026e-05
-0.000329145612883
6.77826584737e-05
-0.000340013306672
5.92948192346e-05
-0.000349263394095
5.14892586356e-05
-0.000357084030932
4.44297114557e-05
-0.000363656898449
3.81362725426e-05
-0.000369152620551
3.25962879864e-05
-0.000373727780322
2.77735068122e-05
-0.00037752317681
2.36156927723e-05
-0.000380663091444
2.00608356738e-05
-0.000383255331626
1.70420974212e-05
-0.000385391884326
1.44915947161e-05
-0.000387149945935
1.23431376936e-05
-0.000388593193912
1.05340601249e-05
-0.000389773163371
9.006316746e-06
-0.00039073060528
7.70699819698e-06
-0.000391496743605
6.5884052019e-06
-0.000392094395143
5.60779819207e-06
-0.000392539195333
4.72710291297e-06
-0.00039284030844
3.91224661437e-06
-0.000393001039815
3.13253385856e-06
-0.000393019617191
2.36014765958e-06
-0.000392889695775
1.56939329834e-06
-0.000392601030767
7.35511722172e-07
-0.00039214093925
-1.66007415135e-07
-0.000391497816681
-1.1524106921e-06
-0.000390644317874
-2.25150865858e-06
-0.000389539516892
-3.4996632872e-06
-0.000388142523382
-4.92517851395e-06
-0.000386405295197
-6.55861653509e-06
-0.000384272553212
-8.43265159984e-06
-0.000381681176331
-1.05816298814e-05
-0.000378559589556
-1.30413430709e-05
-0.000374827177746
-1.58488675465e-05
-0.000370393626382
-1.90422023948e-05
-0.000365158244588
-2.26593437873e-05
-0.000359009637659
-2.67362800855e-05
-0.000351826162195
-3.13034529514e-05
-0.00034347776563
-3.63805109075e-05
-0.000333829921637
-4.19693264366e-05
-0.000322750163859
-4.80459313285e-05
-0.000310117368237
-5.45523290085e-05
-0.000295833188869
-6.13897028285e-05
-0.000279835387581
-6.84139971368e-05
-0.000262110667159
-7.54359455676e-05
-0.000242705654046
-8.22252553485e-05
-0.000221733006254
-8.85220439324e-05
-0.000199382376211
-9.40387296e-05
-0.00017591634312
-9.84899207878e-05
-0.000151670694033
-0.00010158593071
-0.000127061068914
-0.000103032769515
-0.00010254244112
-0.000102639442307
-7.86127175796e-05
-0.000100259204274
-5.57793822961e-05
-9.58137718289e-05
-3.45560105922e-05
-8.92743502007e-05
-1.54266203226e-05
-8.07836027582e-05
1.15887970851e-06
-7.05972931857e-05
1.48738409603e-05
-5.91247949259e-05
2.55273547215e-05
-4.69886093737e-05
3.32538484896e-05
-3.47957039006e-05
3.81004242945e-05
-2.2955016463e-05
4.01837039613e-05
-1.1831312532e-05
3.97527553386e-05
-1.82002685538e-06
3.70037551035e-05
7.24058287117e-06
3.22592567033e-05
1.4716926666e-05
2.58224876262e-05
2.03473336057e-05
1.80080683548e-05
2.37840479123e-05
9.10000991738e-06
2.46058266948e-05
2.0761333504e-05
-3.95418124443e-05
0.00011385981649
-7.55229373908e-05
0.000134886373629
-0.000108042966671
0.000147076535284
-0.00013770849411
0.000153316247241
-0.000164948714436
0.000153855299751
-0.000189865261628
0.000150051040567
-0.000212462543243
0.000142999175827
-0.000232746899896
0.000133701714653
-0.000250762974222
0.000123006149948
-0.000266600734478
0.000111604658706
-0.000280388013257
0.000100040611726
-0.000292279051067
8.87233844835e-05
-0.000302443747221
7.79470432251e-05
-0.000311059127796
6.79098733037e-05
-0.000318302920257
5.87327117853e-05
-0.000324348637833
5.04750771639e-05
-0.000329361644679
4.31489179947e-05
-0.000333495973916
3.67302472605e-05
-0.000336891886109
3.11690439958e-05
-0.000339674262108
2.63976901427e-05
-0.000341951870403
2.23380651832e-05
-0.000343817464221
1.89073138457e-05
-0.000345348547471
1.60223048163e-05
-0.000346608600548
1.36028230438e-05
-0.000347648557688
1.15736569836e-05
-0.000348508366148
9.86577284506e-06
-0.00034921845991
8.41674858961e-06
-0.000349801071661
7.17068218301e-06
-0.000350271421616
6.07782201326e-06
-0.000350638690047
5.09405248845e-06
-0.000350906900945
4.18014498344e-06
-0.000351075543013
3.30086732242e-06
-0.00035113991311
2.42421212169e-06
-0.000351091848234
1.5210225082e-06
-0.00035092217542
5.65530899668e-07
-0.000350623715211
-4.64777412203e-07
-0.00035017501967
-1.60141744563e-06
-0.000349543656586
-2.88318441114e-06
-0.000348698787432
-4.34484528406e-06
-0.000347602703857
-6.02157410285e-06
-0.000346210846609
-7.95078277947e-06
-0.000344471616697
-1.01721860396e-05
-0.000342325952292
-1.27275915696e-05
-0.00033970685403
-1.56607296426e-05
-0.000336538750325
-1.90172481299e-05
-0.000332736505639
-2.28447096231e-05
-0.00032820407693
-2.71920191136e-05
-0.000322833118463
-3.21074648507e-05
-0.000316502145789
-3.7634630597e-05
-0.000309077348617
-4.3805486794e-05
-0.000300415896389
-5.06309297387e-05
-0.000290372628449
-5.80893203987e-05
-0.00027881041602
-6.61146286791e-05
-0.000265613821783
-7.45863499304e-05
-0.000250704196834
-8.33236399568e-05
-0.000234053867727
-9.208625339e-05
-0.000215701363232
-0.000100577702125
-0.000195752644696
-0.000108470664778
-0.000174407749222
-0.00011538348921
-0.000151925480265
-0.000120972005956
-0.00012863601726
-0.000124875162332
-0.000104967933919
-0.00012670055305
-8.13835266149e-05
-0.000126223496049
-5.84053566335e-05
-0.000123236943828
-3.65327524937e-05
-0.00011768586961
-1.627234617e-05
-0.000109534193278
1.85833501552e-06
-9.89137324698e-05
1.73270135326e-05
-8.60655175612e-05
3.0019386028e-05
-7.18168339019e-05
3.98796338902e-05
-5.68485510826e-05
4.67761113965e-05
-4.16917628966e-05
5.06984820142e-05
-2.68767482436e-05
5.17497007604e-05
-1.28815265303e-05
5.00889771735e-05
-1.58444513491e-07
4.600390256e-05
1.13265432419e-05
3.97574574026e-05
2.09644657915e-05
3.1658506931e-05
2.84465400667e-05
2.20303396706e-05
3.34114786743e-05
1.11762069044e-05
3.54648520219e-05
3.19352439473e-05
-3.76398651557e-05
0.000151499174471
-7.22193346038e-05
0.000169465540212
-0.00010332767853
0.000178184620062
-0.000131201237229
0.000181189558016
-0.000156176922952
0.000178830740359
-0.000178467322922
0.000172341191678
-0.000198231333988
0.000162762930786
-0.000215616668558
0.000151086781854
-0.000230775453192
0.000138164654084
-0.000243869056262
0.000124697965948
-0.000255066710874
0.000111237954402
-0.000264542791063
9.81991357583e-05
-0.000272474373801
8.58782800732e-05
-0.000279039118958
7.44742559817e-05
-0.000284412888551
6.41061033202e-05
-0.000288766708912
5.48285055712e-05
-0.000292263158184
4.66449636558e-05
-0.00029505266879
3.95193455597e-05
-0.000297270377257
3.3386334524e-05
-0.000299034030399
2.81609233094e-05
-0.000300443177963
2.37467939151e-05
-0.000301579581338
2.00433027445e-05
-0.000302508552703
1.6950868595e-05
-0.000303280859783
1.43747318103e-05
-0.000303934841877
1.22272513552e-05
-0.000304498471469
1.04290267393e-05
-0.000304991191882
8.90910530274e-06
-0.000305425468136
7.60460702802e-06
-0.000305808072822
6.46008605545e-06
-0.000306141060525
5.42670929337e-06
-0.000306422576396
4.46133656783e-06
-0.000306647413327
3.52538481806e-06
-0.000306807293813
2.58377337382e-06
-0.000306891253579
1.60466112899e-06
-0.000306886916754
5.60868337713e-07
-0.000306780961864
-5.71065197599e-07
-0.000306553256823
-1.82946254743e-06
-0.000306176892468
-3.25989465563e-06
-0.00030562178774
-4.90030207848e-06
-0.000304852480142
-6.79123759942e-06
-0.000303827322723
-8.9762997528e-06
-0.000302497966854
-1.15019013941e-05
-0.000300809113667
-1.44168038222e-05
-0.000298698383326
-1.77718143362e-05
-0.000296095898559
-2.16200809665e-05
-0.000292923078385
-2.60178676499e-05
-0.000289090394438
-3.10250273285e-05
-0.000284494418468
-3.67037477491e-05
-0.000279015325259
-4.31140095705e-05
-0.000272515998393
-5.03050739546e-05
-0.000264844447463
-5.83027139579e-05
-0.000255840761679
-6.7093206052e-05
-0.000245349145007
-7.66064140084e-05
-0.000233233059763
-8.67025671277e-05
-0.000219395438355
-9.71613560847e-05
-0.000203792386326
-0.000107689364498
-0.000186462267043
-0.00011790783892
-0.000167499805326
-0.000127433107508
-0.00014712202919
-0.000135761198828
-0.000125584239512
-0.000142509683626
-0.000103226778993
-0.000147232454815
-8.04961106823e-05
-0.000149431005317
-5.78491715945e-05
-0.000148870153413
-3.58206802907e-05
-0.00014526509468
-1.49070310977e-05
-0.000138599148038
4.31184780908e-06
-0.000128752712253
2.11910188961e-05
-0.000115792611049
3.56805278076e-05
-0.00010055482811
4.75794673927e-05
-8.3715626079e-05
5.6595554131e-05
-6.5864437762e-05
6.25562586814e-05
-4.7652098091e-05
6.54295523311e-05
-2.97496062814e-05
6.534847072e-05
-1.27999521636e-05
6.228797667e-05
2.90269947007e-06
5.65599562033e-05
1.70551036115e-05
4.84708068905e-05
2.90538212465e-05
3.83611758301e-05
3.85569792329e-05
2.65911083742e-05
4.51833577066e-05
1.34981323982e-05
4.8554202068e-05
4.54358846197e-05
-3.47711283963e-05
0.00018627026802
-6.69278912299e-05
0.000201622077158
-9.57985943989e-05
0.000207055056689
-0.000121416888653
0.000206807579193
-0.000144014298046
0.000201427874231
-0.000163814784919
0.000192141400539
-0.000181031782413
0.000179979642972
-0.000195873580889
0.00016592828535
-0.000208541128151
0.000150831892422
-0.000219228712979
0.000135385226349
-0.000228125270799
0.000120134169342
-0.000235416898206
0.000105490401333
-0.000241289295543
9.17502952132e-05
-0.000245928733109
7.91132919276e-05
-0.000249520654049
6.76976036776e-05
-0.000252245926732
5.75533416e-05
-0.00025427560621
4.86741930182e-05
-0.000255765496179
4.10087763241e-05
-0.000256851765076
3.44721392923e-05
-0.00025764843158
2.89571254323e-05
-0.000258246950336
2.43448521647e-05
-0.00025871760073
2.05135003321e-05
-0.000259112081966
1.73449078829e-05
-0.000259466645375
1.47288663044e-05
-0.00025980522997
1.25654221503e-05
-0.000260142248134
1.07656466816e-05
-0.000260484871
9.25134630299e-06
-0.000260834811326
7.95418056323e-06
-0.000261189631598
6.81455370953e-06
-0.000261543696995
5.78043295745e-06
-0.0002618887738
4.80608003915e-06
-0.00026221452565
3.85080665504e-06
-0.000262508845756
2.87776404895e-06
-0.000262757545317
1.85302668016e-06
-0.000262943260848
7.46239046004e-07
-0.000263045957005
-4.68725362847e-07
-0.000263046275141
-1.82951124879e-06
-0.000262921937516
-3.3846112322e-06
-0.000262644203018
-5.17842532101e-06
-0.000262179377937
-7.25646182457e-06
-0.000261487726482
-9.6683568631e-06
-0.000260523010804
-1.2467029961e-05
-0.000259232691554
-1.57075379392e-05
-0.00025755859856
-1.94463239016e-05
-0.000255437236796
-2.37418557353e-05
-0.000252798589054
-2.8656922293e-05
-0.000249562780551
-3.42612313169e-05
-0.000245635095731
-4.0631813575e-05
-0.000240900703579
-4.78487617343e-05
-0.000235221453372
-5.5984662057e-05
-0.000228436913497
-6.50875619387e-05
-0.000220371111528
-7.51592893007e-05
-0.000210846944292
-8.61308275508e-05
-0.000199703778717
-9.78459456699e-05
-0.000186829146626
-0.000110036168537
-0.000172159792333
-0.000122358859417
-0.000155745700266
-0.000134322040315
-0.000137655010431
-0.000145523859498
-0.000118144304702
-0.000155271928899
-9.74670589197e-05
-0.000163186910188
-7.59829490099e-05
-0.00016871649625
-5.41546990167e-05
-0.000171259126865
-3.24089829248e-05
-0.000170615693872
-1.12814245018e-05
-0.000166392455272
8.55663065998e-06
-0.000158437010844
2.64694786524e-05
-0.000146665415688
4.24512658317e-05
-0.000131774309128
5.62032035813e-05
-0.000114306710037
6.73127352695e-05
-9.4825099326e-05
7.54483056873e-05
-7.39999035065e-05
8.03946925637e-05
-5.25983079678e-05
8.20850678884e-05
-3.14395079519e-05
8.06319607574e-05
-1.13465094092e-05
7.59621763821e-05
7.57266110074e-06
6.84091483253e-05
2.46082922348e-05
5.82698921612e-05
3.91935487088e-05
4.59048112166e-05
5.09218095077e-05
3.17169812332e-05
5.93697522382e-05
1.61054099676e-05
6.4169560776e-05
6.15388611506e-05
-3.13980050987e-05
0.00021766770787
-6.06738859368e-05
0.000230897612452
-8.69313100004e-05
0.000233312179749
-0.000110083630987
0.000229959607998
-0.00013028012367
0.000221624077097
-0.000147717761415
0.000209578744657
-0.000162611189368
0.000194872771215
-0.000175179715959
0.000178496500566
-0.000185634981075
0.000161286832446
-0.000194179520254
0.000143929421862
-0.000201009616287
0.000126963902001
-0.000206320497119
0.00011080089547
-0.000210310583664
9.57399720917e-05
-0.0002131825649
8.19848390675e-05
-0.000215140400687
6.9654983739e-05
-0.000216382860629
5.87953258376e-05
-0.000217095300157
4.93861421598e-05
-0.000217441831493
4.1354807291e-05
-0.000217559719386
3.45895230326e-05
-0.000217557006854
2.89539105379e-05
-0.000217513368411
2.43007182181e-05
-0.00021748340819
2.04830559488e-05
-0.00021750126533
1.736229504e-05
-0.000217585467043
1.48126152276e-05
-0.00021774327994
1.27228004439e-05
-0.000217974174585
1.09961265667e-05
-0.000218272384568
9.54916077049e-06
-0.000218628678927
8.3100981803e-06
-0.000219031423592
7.2169377023e-06
-0.000219467487795
6.21614976161e-06
-0.000219922511118
5.26076425422e-06
-0.000220381132539
4.30909338569e-06
-0.000220827478954
3.32377434976e-06
-0.000221244455903
2.26965985147e-06
-0.000221610479784
1.11190829483e-06
-0.000221895521683
-1.84054747218e-07
-0.000222084153528
-1.64126925348e-06
-0.00022216284436
-3.30632495227e-06
-0.000222100580035
-5.24111021637e-06
-0.000221864439417
-7.49303606143e-06
-0.000221415242516
-1.01180020097e-05
-0.000220706806787
-1.31759229496e-05
-0.000219687053272
-1.67277581952e-05
-0.000218300339128
-2.08335077899e-05
-0.000216489530624
-2.55531346468e-05
-0.000214195587298
-3.09513299332e-05
-0.00021135297466
-3.71042993658e-05
-0.000207881486084
-4.4103740739e-05
-0.000203677093782
-5.2053576141e-05
-0.00019860460205
-6.1057550621e-05
-0.000192496689265
-7.11958496611e-05
-0.000185160406146
-8.24959180924e-05
-0.000176398074669
-9.4893476541e-05
-0.00016602256095
-0.000108221749637
-0.000153913423728
-0.00012214556215
-0.000139976864494
-0.000136295645972
-0.000124298951978
-0.00015000013932
-0.00010690476798
-0.000162918199958
-8.81146005179e-05
-0.000174062214709
-6.81729982658e-05
-0.000183128576844
-4.74716992162e-05
-0.000189417808775
-2.64593070489e-05
-0.000192271496717
-5.55429803908e-06
-0.000191520657974
1.44624362324e-05
-0.000186409140303
3.30209390862e-05
-0.000176995494289
5.0154382924e-05
-0.00016379887142
6.54886428335e-05
-0.00014710859906
7.85533125513e-05
-0.000127371414237
8.89057835051e-05
-0.000105177591104
9.61666871683e-05
-8.12607425414e-05
0.000100061810347
-5.64931582105e-05
0.000100473353357
-3.18510041918e-05
9.7492601959e-05
-8.36560252637e-06
9.10533567638e-05
1.4011888423e-05
8.14891012892e-05
3.41725061037e-05
6.90953006257e-05
5.15870177281e-05
5.42522051261e-05
6.57652045277e-05
3.74025786508e-05
7.62207004351e-05
1.8993145949e-05
8.25750065635e-05
8.05336914135e-05
-2.78795908022e-05
0.000245547318097
-5.41115773841e-05
0.000257129392603
-7.76308812281e-05
0.000256831222081
-9.82730124006e-05
0.000250601462917
-0.000116122556072
0.000239473336551
-0.000131335965539
0.000224791864391
-0.000144103760382
0.000207640266419
-0.000154630360199
0.000189022789299
-0.000163117877344
0.000169774021217
-0.000169764717419
0.00015057591464
-0.000174769504544
0.000131968317226
-0.000178337175509
0.000114368169371
-0.000180682824629
9.8085195182e-05
-0.000182030728816
8.33322902245e-05
-0.000182607904005
7.02316789546e-05
-0.00018263345376
5.88203740898e-05
-0.000182306434646
4.90586048483e-05
-0.000181795401471
4.08432464651e-05
-0.000181232134311
3.40257260148e-05
-0.000180710562617
2.84318127897e-05
-0.000180290306864
2.38799465829e-05
-0.000180003159998
2.01954064149e-05
-0.000179860516727
1.72191665886e-05
-0.000179860206183
1.4811838238e-05
-0.000179991856657
1.2854005866e-05
-0.000180240602296
1.12444490607e-05
-0.000180589371926
9.89752950766e-06
-0.000181020143417
8.74048995912e-06
-0.000181514613904
7.71104706719e-06
-0.000182054040386
6.75523002482e-06
-0.000182619651238
5.8260391495e-06
-0.00018319311764
4.88222857254e-06
-0.0001837561981
3.88652326786e-06
-0.000184290553312
2.80367784409e-06
-0.000184777246325
1.59824706007e-06
-0.000185195175534
2.3349553639e-07
-0.000185514999791
-1.32184119052e-06
-0.000185712637436
-3.10910579208e-06
-0.000185768165906
-5.18601879088e-06
-0.000185650968425
-7.61069112613e-06
-0.000185320694647
-1.04487483303e-05
-0.00018472723184
-1.37698738786e-05
-0.000183813733358
-1.7641752853e-05
-0.00018252228593
-2.21254572805e-05
-0.000180799840337
-2.72760800303e-05
-0.000178600087755
-3.31515777818e-05
-0.000175877506036
-3.98273632019e-05
-0.000172574234233
-4.74074840428e-05
-0.000168604622472
-5.60236400833e-05
-0.000163841982626
-6.58206279508e-05
-0.000158115996829
-7.69222535095e-05
-0.000151216884178
-8.93954301629e-05
-0.000142932197924
-0.000103178545261
-0.000133038337056
-0.000118115969334
-0.000121428906387
-0.000133755326633
-0.000107955359048
-0.000149769499438
-9.27802086172e-05
-0.000165175570922
-7.58727513039e-05
-0.000179825896548
-5.76244058988e-05
-0.000192310738265
-3.82665096863e-05
-0.000202486606014
-1.82198139638e-05
-0.000209464597699
2.05655627577e-06
-0.000212547934258
2.17527007529e-05
-0.000211216868322
4.05920334022e-05
-0.000205248557895
5.85293605683e-05
-0.00019493292079
7.51110540034e-05
-0.000180380672287
8.98669449382e-05
-0.000161864591447
0.000102312744667
-0.000139817307799
0.00011197397873
-0.000114838895386
0.000118417500318
-8.77042559977e-05
0.000121288626787
-5.93642561322e-05
0.000120377445475
-3.09395754327e-05
0.000115701038604
-3.68941751477e-06
0.000107413807181
2.22988203412e-05
9.57206431653e-05
4.58653279614e-05
8.09137753281e-05
6.63938797038e-05
6.33938765568e-05
8.32844807909e-05
4.36438629104e-05
9.59688649525e-05
2.21740361727e-05
0.000104047580693
0.000102705320212
-2.4434710113e-05
0.000269981507549
-4.76486921564e-05
0.000280343075091
-6.84582621109e-05
0.000277640530397
-8.66527080143e-05
0.000268795648628
-0.000102266475922
0.000255086840365
-0.000115413352254
0.000237938468112
-0.000126250304898
0.000218476937117
-0.000134956235139
0.000197728422788
-0.000141715638918
0.000176533111835
-0.000146718584189
0.000155578523766
-0.000150165340707
0.000135414713254
-0.000152272277016
0.000116474714978
-0.000153273878077
9.90863754969e-05
-0.000153418264327
8.34762234686e-05
-0.000152955824073
6.97687570317e-05
-0.000152123109162
5.79871529467e-05
-0.00015112608449
4.80610561217e-05
-0.000150127379248
3.98440084496e-05
-0.000149240779524
3.31385915906e-05
-0.000148533574489
2.77240797689e-05
-0.000148034884905
2.33807392938e-05
-0.000147746722252
1.99067423919e-05
-0.000147654674072
1.71266350971e-05
-0.000147736264552
1.48929668295e-05
-0.000147966348243
1.30836515063e-05
-0.000148319949972
1.15976376463e-05
-0.000148773314047
1.03505064749e-05
-0.000149303906481
9.27071908608e-06
-0.000149890040989
8.29683988935e-06
-0.000150510720503
7.37558519415e-06
-0.000151145574333
6.46058014079e-06
-0.000151774618368
5.51096762253e-06
-0.000152378679292
4.49027872372e-06
-0.000152940195819
3.36488269791e-06
-0.000153443301033
2.10102062404e-06
-0.000153871258296
6.6110186216e-07
-0.000154199548762
-9.93939810075e-07
-0.000154407105812
-2.90195889347e-06
-0.000154476013375
-5.11754833517e-06
-0.000154374899618
-7.71226449326e-06
-0.000154057372351
-1.07667596956e-05
-0.000153461766474
-1.43659809211e-05
-0.000152516357173
-1.85876760583e-05
-0.0001511503445
-2.34919860683e-05
-0.000149307332743
-2.91196050709e-05
-0.000146952812885
-3.55065984731e-05
-0.000144066759369
-4.27139073688e-05
-0.000140622026906
-5.08526927547e-05
-0.000136561387439
-6.00847458402e-05
-0.000131774395194
-7.06080782543e-05
-0.000126094889703
-8.26022112229e-05
-0.000119293633585
-9.6197128361e-05
-0.000111156316682
-0.000111316293749
-0.000101405735426
-0.00012786696565
-8.99811518279e-05
-0.00014518030842
-7.66673574011e-05
-0.000163083655974
-6.17202811093e-05
-0.00018012295992
-4.50855973025e-05
-0.000196460834993
-2.71953478467e-05
-0.000210201202862
-8.25521051882e-06
-0.000221426909393
1.10493258209e-05
-0.000228769269275
3.01596844938e-05
-0.000231658428854
4.89534126881e-05
-0.00023001075149
6.73026144203e-05
-0.00022359792658
8.47515465924e-05
-0.000212382027906
0.000100834754207
-0.000196464049072
0.000115073532891
-0.00017610353838
0.000126974356463
-0.00015171829523
0.000136036366633
-0.00012390102775
0.000141772144969
-9.34400672661e-05