/*--------------------------------*- C++ -*----------------------------------*\
| =========                 |                                                 |
| \\      /  F ield         | OpenFOAM: The Open Source CFD Toolbox           |
|  \\    /   O peration     | Version:  v1806                                 |
|   \\  /    A nd           | Web:      www.OpenFOAM.com                      |
|    \\/     M anipulation  |                                                 |
\*---------------------------------------------------------------------------*/
FoamFile
{
    version     2.0;
    format      ascii;
    class       surfaceScalarField;
    location    "200";
    object      phia;
}
// * * * * * * * * * * * * * * * * * * * * * * * * * * * * * * * * * * * * * //

dimensions      [0 3 -1 0 0 0 0];
oriented        oriented;


internalField   nonuniform List<scalar> 
12640
(
-0.001861735526
0.00186235297883
-0.00282817167023
0.000966816589807
-0.00313922579458
0.000311453632012
-0.00360627585784
0.000467353657408
-0.00398929089822
0.000383287977536
-0.00430185206213
0.000312843441591
-0.00456631127891
0.000264759106856
-0.00479016604843
0.000224181493784
-0.00497405136796
0.000184230762315
-0.0051205151696
0.000146835689469
-0.00523433040561
0.000114204543786
-0.00532058971932
8.66753871679e-05
-0.00538392321194
6.37698084584e-05
-0.00542840517365
4.4948803447e-05
-0.00545762286194
2.97111700677e-05
-0.00547465460794
1.75618410655e-05
-0.00548210287408
8.01292495748e-06
-0.00548210509228
6.10089688874e-07
-0.00547640410669
-5.05094398857e-06
-0.00546638356474
-9.32158209752e-06
-0.00545313871609
-1.24976149629e-05
-0.0054375110914
-1.48274999617e-05
-0.00542014735062
-1.65113639742e-05
-0.0054015264574
-1.77137835458e-05
-0.00538200380106
-1.85616793464e-05
-0.00536183029435
-1.91581067398e-05
-0.00534118323045
-1.95783122683e-05
-0.00532017854781
-1.98833543303e-05
-0.00529889174719
-2.01136581685e-05
-0.00527736720405
-2.03013163057e-05
-0.00525562871383
-2.04650566642e-05
-0.00523369457985
-2.06130995559e-05
-0.00521162775158
-2.06976113501e-05
-0.00518967449287
-2.05394786139e-05
-0.00516853432163
-1.96816506007e-05
-0.0051483799908
-1.86597444546e-05
-0.00512264036086
-2.42110075444e-05
-0.00508704353484
-3.40476329527e-05
-0.00504103314709
-4.44454487775e-05
-0.00498278816747
-5.66818413751e-05
-0.00491569026183
-6.55447276095e-05
-0.00484024406833
-7.39217578491e-05
-0.00475631965558
-8.24379614216e-05
-0.00466340391804
-9.14839083455e-05
-0.00456086181738
-0.000101173386503
-0.00444808657805
-0.000111479178053
-0.0043246434682
-0.000122223683434
-0.00419048837861
-0.00013301174303
-0.00404622496566
-0.000143192565222
-0.0038934037802
-0.000151814440121
-0.00373484770267
-0.000157603104575
-0.00357494527948
-0.000158994196339
-0.00341979603309
-0.000154274408658
-0.00327710174973
-0.000141850134703
-0.00315564301946
-0.00012063871459
-0.00306435591578
-9.04949073474e-05
-0.00301097674909
-5.26115331392e-05
-0.00300062840744
-9.6084730756e-06
-0.00303453829893
3.46255250464e-05
-0.00310939895874
7.55477994264e-05
-0.00321779182573
0.000109049072216
-0.00334930140531
0.000132118570625
-0.00349297425531
0.000144249122705
-0.00363923922706
0.000146766312572
-0.00378338762693
0.000144650618018
-0.00392497957252
0.000142082196915
-0.00405384446386
0.000129404668416
-0.00408777486044
3.45559535697e-05
-0.00375675512324
-0.000330188660762
-0.00272552486596
-0.00103014462893
-0.00113425628797
-0.0015902118223
-0.000367563142316
-0.000765935499967
-2.93120658874e-05
-0.000337624824523
0.000179748800338
-0.000208594421749
0.000314751415972
-0.000134512713467
0.000391872073954
-7.67760291853e-05
0.000431716511585
-3.93954038559e-05
0.000459375677037
-2.71925560298e-05
0.000411869096056
4.78583123718e-05
0.00041218479132
-0.00335980842099
0.00522228437206
-0.00301413508859
0.000621369776002
-0.00316648403214
0.000463992128102
-0.00361439101251
0.000915425072214
-0.00423099814109
0.00100007433755
-0.00486946901334
0.000951502734676
-0.0054885094947
0.000884009039609
-0.00606602138912
0.000801912785812
-0.00658951237916
0.000707954370352
-0.00705478183942
0.000612342679423
-0.00746281126212
0.000522476711
-0.00781720063129
0.000441310260401
-0.00812268491128
0.000369501440528
-0.00838433768388
0.000306854082937
-0.00860715042042
0.00025277980137
-0.0087957899982
0.000206468462136
-0.00895450528109
0.000167003604796
-0.0090870757491
0.000133474913523
-0.009196841727
0.000105024320502
-0.00928671440417
8.08873959503e-05
-0.00935924086871
6.03868016295e-05
-0.00941662341893
4.29471460884e-05
-0.00946078721276
2.8072010949e-05
-0.009493392691
1.53509505543e-05
-0.00951589499468
4.43180262285e-06
-0.00952954596551
-4.97252543741e-06
-0.00953544357392
-1.31110863074e-05
-0.00953452457931
-2.0186803776e-05
-0.00952760450622
-2.63807140201e-05
-0.00951536587534
-3.18390964574e-05
-0.0094983917645
-3.66989002463e-05
-0.00947714259884
-4.10738741099e-05
-0.00945194005296
-4.50714840522e-05
-0.0094228952922
-4.87105029688e-05
-0.00939035123437
-5.13150141984e-05
-0.00935970348389
-4.83604561264e-05
-0.00933954113939
-4.33981767594e-05
-0.00932868055433
-4.39126238811e-05
-0.00931988254646
-5.22344832827e-05
-0.00930672051174
-6.88346175502e-05
-0.00928747749955
-8.37835081251e-05
-0.00926069935751
-9.97179254511e-05
-0.00922462628504
-0.000117553580383
-0.0091775703619
-0.000137624472877
-0.00911732845416
-0.000160539984903
-0.00904079175815
-0.000187193600063
-0.0089436390033
-0.000218600330716
-0.00882009914442
-0.00025582744119
-0.00866269057797
-0.000299919257037
-0.00846209625578
-0.000351770262742
-0.00820728075234
-0.000411814913026
-0.00788613336546
-0.000479575096699
-0.0074867950708
-0.000553078541284
-0.00699981444641
-0.000628336386803
-0.00642092058203
-0.00069907550332
-0.00575397314688
-0.00075703214656
-0.00501324443172
-0.000792970981384
-0.00422419696744
-0.000798332878822
-0.0034220739681
-0.000767209402741
-0.00264819952826
-0.000698078945667
-0.00194474219707
-0.000594192023941
-0.0013492964365
-0.000463152699326
-0.000890297773946
-0.000314613907977
-0.000584691711903
-0.000158718566868
-0.000437451267397
-2.47954959707e-06
-0.000442132532711
0.000146930606883
-0.00056368308182
0.000251184214015
-0.000672414372068
0.000143580213971
-0.000535369866093
-0.000466869978002
-0.000212714894227
-0.00135234904452
-0.000115622858692
-0.00168687194706
4.31674438416e-05
-0.00092433081491
0.000255541326507
-0.00054964929832
0.000394399986204
-0.000347099728645
0.00046543977814
-0.000205296268764
0.000490175377267
-0.000101230518846
0.000486558830552
-3.55620939418e-05
0.000464991761619
-5.39438082804e-06
0.000383999240532
0.000129262609
0.000796306148062
-0.000595632104829
0.00581879790181
-0.000512370585899
0.000538452713068
-0.0011114778684
0.00106333734496
-0.00184869555894
0.00165285357945
-0.00256403783579
0.00171561619339
-0.00321897973739
0.0016066437062
-0.00378607287003
0.00145129881421
-0.00425622144041
0.00127225292581
-0.00463576224281
0.00108767661251
-0.00493620206701
0.000912947604611
-0.0051691690798
0.000755589369486
-0.00534533479366
0.000617595910694
-0.00547423829494
0.000498499946247
-0.00556421061746
0.000396891593498
-0.00562238919344
0.000310998450497
-0.0056548393711
0.000238930326457
-0.00566668718247
0.000178842361772
-0.00566226116485
0.000129017097327
-0.00564519612349
8.79141115044e-05
-0.00561853691199
5.41682429658e-05
-0.00558480736928
2.65925089822e-05
-0.00554608614912
4.15491077397e-06
-0.00550405417945
-1.4027449e-05
-0.00546005388879
-2.87151691606e-05
-0.00541512405784
-4.05529476451e-05
-0.00537004828355
-5.00945981726e-05
-0.0053253813048
-5.7807006124e-05
-0.00528148964279
-6.40925080368e-05
-0.00523857047009
-6.929064237e-05
-0.00519668518738
-7.36946792819e-05
-0.00515577153572
-7.755511156e-05
-0.00511568084131
-8.10831866257e-05
-0.00507615787465
-8.44846045367e-05
-0.0050367211229
-8.80137201365e-05
-0.00499465553479
-9.32223533697e-05
-0.00494043123821
-0.00010240778938
-0.00488044109115
-0.000103195493685
-0.00482012508147
-0.000104024572545
-0.00475973496649
-0.000112415329566
-0.00470332195349
-0.000125035293967
-0.00464885913619
-0.000138039506235
-0.00459659445143
-0.000151780412188
-0.00454684647156
-0.00016711330965
-0.00449995255115
-0.000184339353797
-0.00445674517863
-0.000203584816228
-0.00441874259967
-0.000225042338768
-0.0043881945723
-0.0002490074956
-0.00436801013355
-0.000275876670406
-0.00436153175648
-0.000306271991301
-0.0043719457482
-0.000341237535734
-0.00440119161021
-0.000382464489089
-0.00444829046263
-0.000432388225761
-0.00450731275235
-0.000493995684513
-0.00456549968554
-0.0005701197244
-0.00460244257789
-0.000662144587596
-0.00459122233674
-0.000768304840298
-0.00450215754678
-0.000882133920307
-0.0043088745959
-0.000991748943426
-0.00399550497795
-0.00108074751497
-0.00356296794928
-0.00113080409258
-0.00303212947236
-0.00112524202657
-0.00244284091566
-0.0010526582787
-0.00184879866185
-0.000908873761601
-0.00131002522546
-0.000697685599424
-0.000883741678086
-0.000428887719207
-0.000610290009417
-0.000126569402049
-0.000475280808108
0.000116181110847
-0.000278733812905
-5.29268897483e-05
0.000223125002896
-0.000968670429658
0.000558656371976
-0.00168780804638
0.000350054344971
-0.00147816683505
0.000272031825707
-0.000846171059093
0.000278359149658
-0.000555794078459
0.000285744443996
-0.000354320994806
0.000283568385389
-0.000202931795323
0.000270365336585
-8.78950206101e-05
0.00024837983984
-1.33977724553e-05
0.000223190344033
1.99928922597e-05
0.000185065337088
0.000167503349497
0.000981577714338
0.000292003806598
0.0055271603844
-9.67289659396e-05
0.000927520589918
-0.00127894499857
0.0022458387119
-0.00228639900334
0.00266055534533
-0.00306993485116
0.00249938263227
-0.00369335766164
0.00223028199852
-0.0041809369635
0.00193907693932
-0.00455623238892
0.0016477263479
-0.00484606034551
0.00137765276506
-0.005072332301
0.00113933284815
-0.0052507829378
0.000934108408777
-0.00539284287181
0.00075967686125
-0.00550711254768
0.000612735002662
-0.0056001368262
0.000489826983867
-0.0056769088547
0.000387621916026
-0.00574123554274
0.000303053867371
-0.00579603363166
0.000233380066777
-0.00584352835721
0.000176201959124
-0.00588541282928
0.00012943852109
-0.00592294774458
9.13020872536e-05
-0.00595705681741
6.0259565806e-05
-0.00598838666155
3.50114168222e-05
-0.00601737618914
1.44575150918e-05
-0.00604429756323
-2.31996230348e-06
-0.0060693103566
-1.60880693483e-05
-0.0060924886875
-2.74764478846e-05
-0.00611386246186
-3.70060425732e-05
-0.00613343199303
-4.50990720116e-05
-0.00615119826755
-5.21044224602e-05
-0.0061671621854
-5.83062866251e-05
-0.00618134669444
-6.39434296555e-05
-0.00619375569031
-6.92382523059e-05
-0.00620443617907
-7.43622429163e-05
-0.00621355449934
-7.94446735172e-05
-0.00622360509047
-8.37158650431e-05
-0.00623500778276
-9.15434486862e-05
-0.0062356943246
-0.000103041082283
-0.00622603570735
-0.000114210774896
-0.00620848343167
-0.00013048797633
-0.00618270405395
-0.000151330917933
-0.00614605941538
-0.00017518968742
-0.00609651903288
-0.000201818920428
-0.00603219070986
-0.000231922370635
-0.00595077929311
-0.000266216313936
-0.00584963387263
-0.00030516948875
-0.00572598218766
-0.000349108730651
-0.00557714701348
-0.000398225151775
-0.00540092823183
-0.000452450489799
-0.00519625399113
-0.00051127375851
-0.00496416100408
-0.0005736413174
-0.00470890516687
-0.000638021000965
-0.00443882366345
-0.000702774941968
-0.00416627149126
-0.000766864538351
-0.00390598090453
-0.0008307513481
-0.00367150894264
-0.000896983552292
-0.0034703576572
-0.000969855726267
-0.00329930882978
-0.00105360794812
-0.00314224056437
-0.00114926755043
-0.00297227992957
-0.00125116797253
-0.00275895375302
-0.00134459609233
-0.00247859782435
-0.00140604991325
-0.0021251445036
-0.00140654721476
-0.00171767115883
-0.00131673576052
-0.00130251998271
-0.00111315014668
-0.000945304562023
-0.000786331616003
-0.000706457630861
-0.000365567625307
-0.000517104289255
-7.32824279067e-05
-4.55248101432e-05
-0.000524622845675
0.000592467818485
-0.00160678203236
0.000720726294122
-0.00181615333499
0.000506655517381
-0.00126412952319
0.000405852877116
-0.000745348915998
0.000343894247011
-0.000493785599285
0.00029905077198
-0.000309382611522
0.000259717437148
-0.000163526910811
0.000219714228164
-4.77703925627e-05
0.000176017649095
3.04026252145e-05
0.000132298547352
6.38055872115e-05
9.59179596899e-05
0.000204139098385
0.00107752332579
0.000418553517339
0.00510927501236
-0.000512561903404
0.0018590465189
-0.00187304555225
0.00360664195119
-0.00274385275677
0.00353164308222
-0.0033120384084
0.00306782029617
-0.00371154279054
0.00263001645851
-0.00399172456839
0.00221946374455
-0.00418801021123
0.00184418446241
-0.00432870398941
0.00151847990789
-0.00443199078496
0.00124270357304
-0.00450883651525
0.00101098291649
-0.00456610238862
0.000816907567989
-0.00460824708567
0.000654777884406
-0.0046382423963
0.000519648307199
-0.0046581041973
0.000407238560181
-0.00466924790149
0.000313879104137
-0.00467272803013
0.000236472548263
-0.00466940148103
0.000172419069413
-0.00466001376551
0.000119531981735
-0.00464524950567
7.59581833469e-05
-0.00462574847653
4.01253445564e-05
-0.00460211813909
1.06961146034e-05
-0.00457492879434
-1.34606546152e-05
-0.00454471631135
-3.33036726833e-05
-0.00451197075286
-4.96388556052e-05
-0.00447713741215
-6.31479711954e-05
-0.00444060356628
-7.4402257824e-05
-0.00440270085571
-8.38877057225e-05
-0.0043636914103
-9.20148052383e-05
-0.00432377209778
-9.91417679113e-05
-0.00428305745892
-0.000105582620827
-0.00424159240671
-0.000111637312383
-0.00419930345237
-0.00011759024331
-0.00415582194736
-0.000123871557056
-0.00410947472756
-0.000131012671304
-0.00406537567441
-0.000136592365944
-0.00402563815387
-0.000143725142374
-0.0039888215938
-0.000151964732768
-0.00395777326215
-0.000162463514768
-0.00393362696145
-0.000176384709808
-0.00391607113498
-0.000193631751434
-0.00390473896832
-0.000214004096544
-0.00389954328591
-0.000237935427458
-0.00390028422579
-0.000266245620487
-0.00390633646153
-0.000299838692393
-0.00391644184053
-0.000339669269809
-0.0039284430057
-0.000386837101872
-0.0039388679869
-0.00044258723453
-0.00394249158492
-0.000508170261712
-0.00393208311589
-0.000584536664971
-0.00389869776959
-0.000671874175621
-0.00383286506901
-0.0007690654741
-0.00372683404418
-0.000873355481011
-0.00357742829388
-0.000980623637091
-0.00338834017469
-0.00108655137984
-0.00317025816072
-0.00118842902676
-0.0029377187203
-0.00128665029172
-0.00270310994634
-0.00138438138327
-0.00247021071797
-0.00148456900724
-0.00223099532678
-0.00158429455166
-0.00196887328943
-0.00166862998309
-0.00166892680067
-0.00170690727956
-0.00133355478245
-0.00165246050728
-0.000996544356966
-0.00145044205814
-0.000722648872495
-0.00106043849763
-0.000544437862287
-0.000543951244282
-0.000230171686716
-0.000387718656664
0.000397076691335
-0.00115204027914
0.000789505216384
-0.0019993652022
0.000706076891031
-0.00173284712612
0.0005306183755
-0.00108875068079
0.000445493689614
-0.000660258695501
0.000375647526093
-0.000423930752258
0.000315048068038
-0.000248765676602
0.000260555933303
-0.000108973850681
0.000207884803734
4.95098811236e-06
0.000153234771775
8.51471586897e-05
9.89884724621e-05
0.000118192729417
5.73955044914e-05
0.000245755447373
0.00113505442497
0.000368035191404
0.00474163635313
-0.00100085048031
0.00322830875316
-0.00227724210519
0.0048833564995
-0.00288380883377
0.00413849198056
-0.00323297541142
0.00341724472757
-0.00345779041269
0.00285506227566
-0.00360288125624
0.00236475514369
-0.00370115703533
0.00194262319048
-0.00377448285483
0.001591921528
-0.00383392748744
0.00130220952669
-0.00388517950691
0.00106223339604
-0.00393115364095
0.000862812158401
-0.00397317895117
0.000696660531675
-0.00401173387136
0.000557985309762
-0.00404685221396
0.000442061977108
-0.00407838555327
0.000345041476703
-0.00410620292373
0.000263843545485
-0.0041303035979
0.00019600116035
-0.00415085014251
0.000139489426163
-0.00416814466605
9.2597692081e-05
-0.00418258570844
5.38471926781e-05
-0.00419461473624
2.19475858407e-05
-0.00420467563815
-4.23384700081e-06
-0.00421317655007
-2.56863183822e-05
-0.00422047204348
-4.32744087328e-05
-0.00422684495924
-5.77456716065e-05
-0.00423250791127
-6.97475131037e-05
-0.00423759970439
-7.98336250412e-05
-0.0042421984899
-8.84815385386e-05
-0.00424632656814
-9.60999996064e-05
-0.00424996430279
-0.000103050893966
-0.00425306703296
-0.000109655095088
-0.00425554318848
-0.000116247919883
-0.00425738188578
-0.000123176406951
-0.00425829605671
-0.000131248128738
-0.00425501647335
-0.000141022200582
-0.00424653345995
-0.000153348119571
-0.00423167682651
-0.000167946704937
-0.00420972678093
-0.000185514172264
-0.00418035209537
-0.000206830601071
-0.00414280124706
-0.000232212324819
-0.00409614648533
-0.000261641740846
-0.00403972947007
-0.000295277121875
-0.00397329401868
-0.000333543577936
-0.00389699051219
-0.000376936100206
-0.00381147816883
-0.00042590793255
-0.00371807330038
-0.00048090220019
-0.00361881815991
-0.000542444668904
-0.00351630703997
-0.00061123397124
-0.00341312671642
-0.000688232395872
-0.00331082017867
-0.000774668211381
-0.00320857246361
-0.000871783525009
-0.00310221013291
-0.000980176405536
-0.00298442035445
-0.00109886625523
-0.00284677818984
-0.00122464195432
-0.00268317191474
-0.001352481078
-0.00249277947604
-0.00147748260023
-0.0022803819214
-0.00159720890251
-0.00205253060111
-0.00171282996653
-0.00181171978876
-0.00182548672635
-0.00155260890369
-0.00192808334814
-0.00126688798897
-0.00199292286804
-0.000959145592318
-0.00196044614751
-0.00066784631103
-0.00174193735172
-0.000464711543914
-0.00126374445807
-0.000260073817524
-0.000748756372143
0.000224365075129
-0.000872323492811
0.0007897524783
-0.00171759199372
0.000883984373388
-0.00209374881417
0.000678571418638
-0.00152755993394
0.000528172325282
-0.00093843801801
0.000447916498773
-0.000580053809693
0.00038146652665
-0.000357506179546
0.000320652787204
-0.000187937277627
0.000263343382183
-5.16466790392e-05
0.000205820172257
6.25375349529e-05
0.000145246119133
0.000145785831637
8.29955559533e-05
0.000180483575011
3.32533117369e-05
0.000295696400396
0.0011683130901
0.000218272307653
0.00452391459747
-0.00141692178164
0.00486388066171
-0.00240456581654
0.00587131788234
-0.00272729698219
0.00446150546593
-0.00291401964428
0.00360421734059
-0.00302895970451
0.00297022420645
-0.00310012558913
0.00243610669032
-0.00315287479999
0.00199551572039
-0.00320149003416
0.00164062998738
-0.00325071659162
0.00135147280594
-0.00330244504661
0.00111393636008
-0.00335676454854
0.000917040519426
-0.00341266725344
0.000752402773397
-0.00346862745413
0.000613715212564
-0.00352285518673
0.000495988241609
-0.00357357794619
0.000395392221468
-0.0036193329977
0.000309156401994
-0.00365912814144
0.00023528451479
-0.00369245863274
0.000172240117672
-0.00371923569108
0.000118727061601
-0.00373967447111
7.35736301079e-05
-0.00375418602944
3.56829392894e-05
-0.00376328060707
4.02620968325e-06
-0.00376750220898
-2.23552492754e-05
-0.00376737548209
-4.43403457707e-05
-0.00376337784767
-6.27276318314e-05
-0.00375591464818
-7.82322040801e-05
-0.00374531189282
-9.14909582552e-05
-0.00373180734817
-0.000103066525234
-0.0037155525945
-0.000113457301166
-0.00369661159154
-0.000123111028124
-0.00367496259955
-0.000132436354573
-0.00365052717358
-0.000141824247657
-0.0036232908825
-0.00015155902733
-0.00359411375103
-0.000161574469745
-0.00356383943268
-0.000172437139878
-0.00353414371016
-0.000184166309464
-0.00350501461663
-0.000198171537893
-0.00347663599638
-0.000214955497442
-0.00344915385379
-0.000235332262881
-0.00342237264541
-0.000259963325867
-0.00339561768504
-0.000289306834234
-0.00336788658548
-0.000323853500148
-0.00333794114491
-0.000364263416285
-0.00330425723278
-0.000411323105809
-0.00326493674967
-0.000465861231277
-0.00321771109518
-0.000528696665176
-0.0031601093931
-0.000600558496812
-0.00308985426614
-0.000681955063056
-0.00300544184395
-0.00077307339051
-0.00290667541764
-0.000873835163189
-0.00279472522514
-0.000984111555507
-0.00267135286703
-0.00110390883044
-0.00253742996789
-0.00123313391148
-0.00239161528369
-0.00137078839994
-0.00223050046896
-0.00151391519575
-0.00205052481146
-0.00165776371264
-0.00185071022751
-0.00179731051108
-0.00163295961441
-0.00193084008579
-0.0013991988059
-0.00205947137084
-0.00114710344309
-0.00218036197715
-0.000871859926058
-0.00226831418098
-0.000587470118356
-0.00224495192796
-0.000358060422015
-0.0019714505642
-0.000197299925477
-0.00142461633682
0.000116962332727
-0.0010631458262
0.000677820564263
-0.00143332507491
0.00102835993332
-0.00206828093756
0.000894149980015
-0.00195968161974
0.000662065593438
-0.00129559412632
0.000527859473882
-0.000804319160405
0.000447879716726
-0.000500127419267
0.000383938488283
-0.000293584194205
0.000325307900752
-0.000129309844462
0.000267710948447
5.98522506436e-06
0.000208073547336
0.000122212774686
0.000143967826524
0.000209956975109
7.56020207436e-05
0.000248970154239
1.70817887517e-05
0.000354214869946
0.00118550320233
4.44829296787e-05
0.00447973739289
-0.00167134773927
0.00658004456424
-0.00228056495662
0.00648082412734
-0.00240700292828
0.00458820010538
-0.00251946721833
0.00371691261878
-0.00258693317357
0.003037886596
-0.00263311248467
0.00248244679228
-0.00267843418346
0.00204095319061
-0.00273246558775
0.00169472812254
-0.00279596718124
0.00141498671577
-0.00286923530636
0.00118716072571
-0.00295084300254
0.000998545366167
-0.00303839849296
0.000839797435156
-0.00312896690982
0.00070406243352
-0.00321913776553
0.00058587896691
-0.00330556343268
0.000481476971183
-0.00338555165357
0.000388742551027
-0.00345735876019
0.00030662662009
-0.00352018180237
0.000234533482273
-0.00357398076561
0.000171931171309
-0.00361924553408
0.000118177800937
-0.00365677581281
7.24897354849e-05
-0.0036875124501
3.39792976857e-05
-0.00371241471523
1.70953675751e-06
-0.0037323818802
-2.52586784775e-05
-0.00374820104345
-4.78343427204e-05
-0.00376051903394
-6.68729753384e-05
-0.00376982919395
-8.31651112077e-05
-0.00377647106694
-9.74270736663e-05
-0.00378063860406
-0.000110304618689
-0.00378239258536
-0.00012237809793
-0.00378167498416
-0.000134176925094
-0.00377833381631
-0.000146185694941
-0.00377201534825
-0.000158892728709
-0.0037616454711
-0.000172948653013
-0.00374652715986
-0.000188544265252
-0.00372502103131
-0.000206633847906
-0.00369642273766
-0.000227696112298
-0.003659717071
-0.000252547696824
-0.00361405938815
-0.000281830081585
-0.00355877068042
-0.000316041042064
-0.00349332596131
-0.00035548324786
-0.00341752267603
-0.00040032747801
-0.00333169313773
-0.000450699860726
-0.00323680710543
-0.000506752623102
-0.00313438637172
-0.000568765062365
-0.0030262156543
-0.000637295202577
-0.00291388833938
-0.000713265939401
-0.00279831006453
-0.000797872639182
-0.0026793747869
-0.00089231475785
-0.00255601481697
-0.000997472254812
-0.00242667643676
-0.00111370200915
-0.00228992283521
-0.00124089143286
-0.00214465893151
-0.00137860517375
-0.00198958776603
-0.0015260479201
-0.00182255993889
-0.00168111342165
-0.0016405040493
-0.00183997217531
-0.00144144612388
-0.00199649590178
-0.00122496639749
-0.00214741769165
-0.000991709477485
-0.00229279123355
-0.000739331876613
-0.00243277401195
-0.000469092591018
-0.00253856500478
-0.000219838770198
-0.00249421913291
-5.71966180846e-05
-0.00213412884707
0.000125813514977
-0.00160769645142
0.000539038214029
-0.00147647669069
0.00100800123101
-0.00190242002804
0.00109726270765
-0.00215768562463
0.000852318044565
-0.00171487157588
0.000645181482119
-0.0010885689026
0.000527104074922
-0.000686320918516
0.000450473100465
-0.000423542628204
0.000388176950556
-0.000231310902503
0.000330651021569
-7.17707612059e-05
0.000273101771781
6.35591308943e-05
0.000212598147328
0.000182769725463
0.000146343646836
0.00027627258977
7.28774644559e-05
0.00032246133628
5.56318168819e-06
0.000421702000436
0.00119106679533
-0.000119937833979
0.00460013089154
-0.00175748513007
0.00821789923995
-0.00200328969994
0.00672690081664
-0.00205087470059
0.00463602204807
-0.00214338244222
0.00380962291378
-0.00219077625333
0.00308545148918
-0.00223271356452
0.00252451268024
-0.00228533359494
0.0020936594556
-0.00235535386012
0.00176478704595
-0.0024404983798
0.00150012302938
-0.00254103693273
0.00128764361018
-0.00265460466361
0.00111201253544
-0.00277789891031
0.000962944734947
-0.00290654816253
0.000832521128021
-0.00303497080205
0.000714064349833
-0.00315763460088
0.000603855905767
-0.00327027721979
0.000501047917613
-0.00337037422793
0.000406330321915
-0.00345700572182
0.000320710992331
-0.00353043713596
0.000244845899668
-0.0035916629435
0.000178823546708
-0.0036420336298
0.00012222056155
-0.00368300363116
7.42540120195e-05
-0.00371596913431
3.39334659314e-05
-0.00374217715083
1.68661343115e-07
-0.00376267070908
-2.81483378378e-05
-0.003778273057
-5.20975860196e-05
-0.00378958137858
-7.26907650374e-05
-0.00379698576044
-9.08577845093e-05
-0.00380068052702
-0.000107436081526
-0.00380068520589
-0.000123187001883
-0.0037968452942
-0.000138811706442
-0.00378882656297
-0.00015497812248
-0.00377612893094
-0.0001723414204
-0.0037583826207
-0.000191425704441
-0.00373514941043
-0.000212485656497
-0.00370622035076
-0.000236237282536
-0.00367095286202
-0.000263608319437
-0.00362833053957
-0.000295779421908
-0.00357717805243
-0.000333560532441
-0.00351618659261
-0.000377572960487
-0.00344401734223
-0.000428156416038
-0.00335944818608
-0.000485358267932
-0.0032615938931
-0.000548973258427
-0.00315013619713
-0.000618584917155
-0.00302552586202
-0.000693706810078
-0.00288907740662
-0.000774034622326
-0.00274290398589
-0.000859692599706
-0.00258966007599
-0.000951336571983
-0.0024320921822
-0.00105007111524
-0.00227245495759
-0.00115726897326
-0.00211196961126
-0.00127431810869
-0.00195054715542
-0.0014024159734
-0.00178693617872
-0.00154229227893
-0.00161874001095
-0.00169429556056
-0.00144288454259
-0.00185699806985
-0.00125517932041
-0.00202768214464
-0.00105227161662
-0.00219938478745
-0.00083196761872
-0.00236767271257
-0.000593835194037
-0.00253085020913
-0.000332181215537
-0.00269434018347
-6.57049807164e-05
-0.00280496661497
0.000128108088515
-0.00268799051305
0.00025454526163
-0.00226057346464
0.000496873122741
-0.00185008500504
0.000905094243047
-0.00188480070607
0.0011696367348
-0.00216709187154
0.00105216863611
-0.00204035347434
0.000789742169477
-0.00145257092318
0.000620143490948
-0.000919071881746
0.00051860140214
-0.000584847612302
0.000447785533879
-0.000352767596094
0.000387798239758
-0.000171331562715
0.000332223882142
-1.618334576e-05
0.000276173003366
0.000119647468874
0.000216560579331
0.000242428156829
0.000149938907194
0.000342951254519
7.2858629035e-05
0.000399654462445
-2.97967127656e-06
0.000497533064406
0.00118818067527
-0.000250677608571
0.00485102053616
-0.00170310247843
0.00967059841052
-0.00166832159043
0.00669234773862
-0.00173191724845
0.00469981969042
-0.00181728667596
0.00389516301816
-0.00185360194097
0.00312189770985
-0.00190086328443
0.00257186930637
-0.0019669150528
0.00215976292724
-0.00205652982119
0.00185441437323
-0.00216468955555
0.00160825683498
-0.0022933755367
0.00141626913851
-0.002439528599
0.00125807305767
-0.00259936503385
0.00112266026504
-0.0027666486038
0.000999652751581
-0.00293247946441
0.000879711988752
-0.00308828211347
0.000759437470068
-0.00322807730238
0.000640578854999
-0.00334902492688
0.000526962529257
-0.00345083962542
0.000422155206152
-0.0035348604993
0.000328437265486
-0.00360322926356
0.000246707519881
-0.00365833937378
0.00017679373153
-0.00370251995998
0.000117856695369
-0.00373787275157
6.86747492555e-05
-0.00376618103199
2.78470512847e-05
-0.00378888754235
-6.08175584172e-06
-0.0038070952499
-3.45245350405e-05
-0.00382160665188
-5.88017166306e-05
-0.00383295919889
-8.010317002e-05
-0.00384147241705
-9.94921261188e-05
-0.00384727001466
-0.000117923314114
-0.00385029830802
-0.000136280382083
-0.00385031409232
-0.000155422135113
-0.00384684097381
-0.000176240290084
-0.00383900388074
-0.0001996588456
-0.00382480346444
-0.00022705440682
-0.00380209619818
-0.000259291944663
-0.00376875333549
-0.000297274027758
-0.00372288200826
-0.000341959529501
-0.00366242406631
-0.000394311519614
-0.00358545506658
-0.000454825796803
-0.00349047989677
-0.000523400896209
-0.00337677477608
-0.000599319174826
-0.00324462211645
-0.000681362337226
-0.00309537760795
-0.000768045020223
-0.00293134874329
-0.000857927493624
-0.00275553677142
-0.000950012691699
-0.00257129587203
-0.00104407337399
-0.00238198592952
-0.00114075839569
-0.00219075075091
-0.00124138919554
-0.00200034068748
-0.00134773070322
-0.00181281377602
-0.00146186402146
-0.00162890509578
-0.00158631097624
-0.00144785681818
-0.00172329440589
-0.00126683008863
-0.00187524786755
-0.00108167877692
-0.00204204995616
-0.000886766162188
-0.00222247361936
-0.000678242812881
-0.00240776062021
-0.00045084192601
-0.00259490657609
-0.000194640936929
-0.00278687770961
7.98206928622e-05
-0.00296865143332
0.000309611514652
-0.00303465136197
0.000445084367049
-0.00282341868199
0.000578025104066
-0.00239353279793
0.000844872330645
-0.00211700485896
0.00114132555359
-0.00218136569611
0.00118292503352
-0.00220882266404
0.000954825181009
-0.00181238691743
0.000721678548832
-0.00121954297401
0.000584476076021
-0.000781961152931
0.000497425607283
-0.000497860353991
0.00043303295776
-0.000288407451127
0.000377117312333
-0.000115422259261
0.00032545756761
3.5496839374e-05
0.000273140682495
0.000172000653508
0.000216886323421
0.000298733305977
0.000152424411661
0.000407475432482
7.37974015745e-05
0.000478300599036
-9.2702079514e-06
0.00058075793092
0.00117891309194
-0.00034023251247
0.00519165089147
-0.00155575137174
0.0108863629837
-0.00134565331783
0.00648247105857
-0.00147295573145
0.00482729507624
-0.00153782443571
0.00396016661651
-0.00156875393652
0.00315292567027
-0.00162565498706
0.00262882380538
-0.001705822813
0.00223994883015
-0.00181326410293
0.0019618379426
-0.00194076300078
0.00173570965652
-0.00209396533908