/*--------------------------------*- C++ -*----------------------------------*\
| =========                 |                                                 |
| \\      /  F ield         | OpenFOAM: The Open Source CFD Toolbox           |
|  \\    /   O peration     | Version:  v1806                                 |
|   \\  /    A nd           | Web:      www.OpenFOAM.com                      |
|    \\/     M anipulation  |                                                 |
\*---------------------------------------------------------------------------*/
FoamFile
{
    version     2.0;
    format      ascii;
    class       surfaceScalarField;
    location    "200";
    object      phia;
}
// * * * * * * * * * * * * * * * * * * * * * * * * * * * * * * * * * * * * * //

dimensions      [0 3 -1 0 0 0 0];
oriented        oriented;


internalField   nonuniform List<scalar> 
12640
(
-0.00215095216649
0.00215333227051
-0.00492236312278
0.00277359514042
-0.00690050250674
0.00198035113819
-0.00842732121246
0.0015285292512
-0.00918979959063
0.000764143018073
-0.00973298831739
0.000544595264089
-0.0104117215595
0.00067974415384
-0.0109691930354
0.00055817041353
-0.0114438044326
0.000475205361935
-0.0118380485591
0.000394724909371
-0.0121646086365
0.000326975377873
-0.0124372971423
0.000273005824447
-0.0126665107001
0.000229445399765
-0.012860054977
0.000193664832983
-0.0130241700544
0.000164126849156
-0.0131640693384
0.000139787356708
-0.0132840239518
0.000119718988962
-0.0133875197667
0.000103130990937
-0.013477337218
8.93230506849e-05
-0.0135557011571
7.77415108402e-05
-0.0136243626766
6.79107728454e-05
-0.013684706354
5.9471278096e-05
-0.0137378154945
5.21150529255e-05
-0.0137845403386
4.5619556481e-05
-0.0138255489802
3.97925386362e-05
-0.0138613655269
3.45027703618e-05
-0.01389241228
2.96359863817e-05
-0.0139190268488
2.51216037467e-05
-0.0139414982549
2.08966046165e-05
-0.0139600788107
1.69411106636e-05
-0.0139750414067
1.32576136479e-05
-0.0139868411549
1.00495052178e-05
-0.0139964565486
7.81828310149e-06
-0.0140060641107
7.78655519989e-06
-0.0140150773687
7.17241331147e-06
-0.0140021671124
-1.47418427403e-05
-0.0139500608775
-5.39191277767e-05
-0.0138653364599
-8.6488598101e-05
-0.013761319197
-0.000105718927567
-0.0136446648966
-0.000118267210249
-0.0135196222133
-0.000126552531784
-0.0133888313175
-0.000132177690295
-0.0132540039507
-0.000136077300328
-0.0131162758977
-0.00013883003852
-0.012976444871
-0.000140773586903
-0.0128350969293
-0.000142130173894
-0.0126927011206
-0.000143009793206
-0.0125496627841
-0.000143493163148
-0.0124063580211
-0.000143596735896
-0.0122631809183
-0.000143323764021
-0.0121205614529
-0.00014262145968
-0.0119790207406
-0.000141421395875
-0.0118391775816
-0.000139607092513
-0.0117018005073
-0.000137050074018
-0.0115677946512
-0.000133595474484
-0.0114382298143
-0.000129095789569
-0.0113142949497
-0.000123416380604
-0.0111972814479
-0.000116465971884
-0.011088496403
-0.00010821781677
-0.0109891908717
-9.87322205528e-05
-0.0109004361791
-8.81831597345e-05
-0.0108230067723
-7.6865096049e-05
-0.0107572421904
-6.5212585747e-05
-0.0107029143673
-5.37853847768e-05
-0.0106591092909
-4.32743275071e-05
-0.0106241156727
-3.44653854748e-05
-0.0105953502863
-2.82400776031e-05
-0.010569293808
-2.55218619109e-05
-0.0105414397992
-2.73096868774e-05
-0.0105063474692
-3.45228627364e-05
-0.010457434024
-4.8321804159e-05
-0.0103876770661
-6.91099043883e-05
-0.0102881009335
-9.89193493632e-05
-0.0101537782033
-0.000133555576787
-0.00996811267254
-0.000184978698064
-0.00974433663296
-0.000222966307764
-0.00935223874704
-0.000391394155661
-0.00882359139448
-0.000528099174886
-0.00599983095678
-0.00282167496829
-0.00599921991718
-0.000484983929327
0.00264094313839
-0.00237726457251
0.004668936097
-0.0034669727824
0.00307245137064
-0.00504350161395
0.00310621074116
-0.00683916234331
0.00256055189946
-0.00846311053725
0.00216917445668
-0.0096988946215
0.00191617343158
-0.0108494491391
0.0017093458067
-0.0119007657264
0.00152717713881
-0.0128696815641
0.00136426420066
-0.0137606417924
0.00121858156802
-0.0145764913436
0.00108944783633
-0.0153219360294
0.000975478930882
-0.0160029575615
0.000875196752108
-0.0166257271188
0.000787377250401
-0.0171963223546
0.00071076622703
-0.0177203503754
0.000644081585941
-0.0182029801733
0.000585987816729
-0.0186487520562
0.000535260501889
-0.0190617116328
0.000490756177229
-0.0194453181824
0.000451504403231
-0.0198026042574
0.00041663674249
-0.0201361215415
0.000385441637634
-0.0204480825466
0.000357289367525
-0.0207403211516
0.000331671260874
-0.0210144040436
0.000308135758449
-0.0212716034606
0.000286320471894
-0.0215129762746
0.000265901946618
-0.0217393566996
0.000246624624762
-0.0219513903
0.000228259650279
-0.0221495597298
0.000210659812097
-0.0223339463719
0.000193625203306
-0.0225043403022
0.000177359976837
-0.0226603156283
0.000162891565315
-0.0228154975868
0.000161461607109
-0.0230132187674
0.000182101799108
-0.023233218526
0.000165206658992
-0.0234295801693
0.000109050829422
-0.0235948658822
5.87738934462e-05
-0.0237248418538
1.09987657931e-05
-0.0238157368164
-3.63155978728e-05
-0.023865231436
-8.32343425733e-05
-0.0238716042528
-0.000130186456554
-0.0238331672639
-0.000177628704847
-0.0237483324796
-0.000225891251097
-0.0236155071366
-0.000275116504025
-0.0234332091001
-0.000325389234849
-0.0231999636551
-0.000376708125561
-0.0229143942471
-0.000429063479048
-0.0225751404361
-0.000482382662734
-0.0221809343704
-0.000536574379947
-0.0217305616828
-0.000591474769009
-0.0212229418715
-0.000646867429925
-0.0206571568751
-0.00070243800397
-0.0200325586688
-0.00075777577715
-0.0193488820195
-0.000812343916888
-0.0186063923654
-0.000865474300117
-0.0178060742677
-0.00091636342078
-0.0169498039001
-0.000964077557392
-0.0160405653666
-0.00100758484465
-0.0150825929206
-0.00104578632065
-0.0140815305582
-0.00107758676104
-0.013044463682
-0.00110195387302
-0.0119799330239
-0.00111801299353
-0.0108977938088
-0.00112511620184
-0.00980904307937
-0.00112292777625
-0.00872551041755
-0.0011114759062
-0.00765954136161
-0.00109118670237
-0.00662359918422
-0.00106292370273
-0.0056298825521
-0.00102788771865
-0.00468993592453
-0.000987873391282
-0.0038142948174
-0.000944321648984
-0.00301203729338
-0.000900673735741
-0.00229044642533
-0.000854640689501
-0.00165293819321
-0.000821876443606
-0.00110170513381
-0.000773707270928
-0.000612329833692
-0.000880179617166
-0.000202416103746
-0.000937273995949
0.00047343245879
-0.00349715170089
-0.00552497162342
-0.00252545405001
0.00516751995888
-0.00304158862921
0.00518638509267
-0.00360502817726
0.00363649527265
-0.0038975616695
0.00339920047094
-0.00437263756441
0.00303609136013
-0.0049116644641
0.00270870801663
-0.00548357747638
0.00248863089902
-0.00606193316144
0.00228829314294
-0.00660453469015
0.00207039512028
-0.00708562820084
0.00184601069149
-0.00749595450091
0.00162957026915
-0.00783529666458
0.00142947444851
-0.00810848485364
0.00124934277392
-0.00832262774038
0.0010900204148
-0.00848537547757
0.000950780041604
-0.00860402682043
0.00083006276149
-0.0086852168323
0.000725878443428
-0.00873476864369
0.000636125554213
-0.00875771138886
0.000558743151078
-0.00875829485759
0.000491851572003
-0.00874009648846
0.000433768577007
-0.0087060801461
0.000383051207716
-0.00865871110431
0.000338454093592
-0.00860000995995
0.000298936858537
-0.00853164977235
0.000263613104994
-0.00845499615615
0.0002317520574
-0.00837118361668
0.000202735581687
-0.00828114288022
0.000176058637335
-0.00818566013587
0.000151303081195
-0.00808539502906
0.000128129677991
-0.00798094873843
0.000106322563824
-0.00787292143959
8.56890688537e-05
-0.00776169596349
6.6214965624e-05
-0.00764435582484
4.56258219174e-05
-0.00749788547854
1.50753165891e-05
-0.00731686246961
1.17293434144e-06
-0.00715787277944
6.34019582948e-06
-0.00703733228657
-1.13455290454e-05
-0.00694974016892
-2.86308307642e-05
-0.00689557092902
-4.29553905867e-05
-0.00687500001611
-5.66201342642e-05
-0.00688757228213
-7.0365816728e-05
-0.00693296592349
-8.44440588397e-05
-0.00701097007733
-9.92487338696e-05
-0.00712121577913
-0.000115222933489
-0.00726306440903
-0.00013282544635
-0.00743548456241
-0.000152491256464
-0.00763702475709
-0.000174680618891
-0.00786572698144
-0.000199853659111
-0.00811910428948
-0.000228500021781
-0.00839405979892
-0.000261109788056
-0.0086868507754
-0.000298188561708
-0.00899300612713
-0.000340228873117
-0.00930727709399
-0.000387707811781
-0.00962356493089
-0.000441053975022
-0.0099348831478
-0.000500623442643
-0.0102333324885
-0.00056665739648
-0.0105101272813
-0.000639237442313
-0.0107556767571
-0.000718236418839
-0.0109597410109
-0.000803266287349
-0.0111116731116
-0.000893639059763
-0.0112007430168
-0.000988335534371
-0.0112165426845
-0.00108600596354
-0.011149439851
-0.00118499276882
-0.0109910588349
-0.0012833959807
-0.0107347355969
-0.00137916204332
-0.0103759202549
-0.00147021016997
-0.00991247784236
-0.00155454549757
-0.00934486759776
-0.00163044393323
-0.00867620798519
-0.00169643616901
-0.00791215443098
-0.00175179230306
-0.00706068462456
-0.00179560392007
-0.00613115311036
-0.00182999471423
-0.00513396535446
-0.00185151560862
-0.00407730974852
-0.00187826451818
-0.00297736474613
-0.00187326787877
-0.00185052334035
-0.00200674821766
-0.000835152320544
-0.00195253954209
2.54072039856e-05
-0.00435672625599
-0.00549968427094
-0.00589811389222
0.0110675818761
-0.00419509164568
0.003484013768
-0.00335235875055
0.0027941472192
-0.00334768412178
0.0033948921785
-0.00380928649027
0.00349809460529
-0.0044913134943
0.00339117889138
-0.00520821036955
0.0032060131604
-0.00586681101297
0.00294741173996
-0.00643866163346
0.00264279899447
-0.00692221463158
0.00233014140713
-0.00732638956408
0.00203435519267
-0.00766334640968
0.00176705944732
-0.00794543440458
0.00153208693638
-0.00818382106335
0.00132907458467
-0.00838789784095
0.00115554676961
-0.00856527576343
0.0010081354943
-0.00872197251448
0.000883286868774
-0.00886271888184
0.00077758332192
-0.00899118665839
0.000687934521253
-0.00911024318992
0.000611628005712
-0.00922211074051
0.000546364677098
-0.00932854889751
0.000490212390482
-0.00943094990741
0.000441584262639
-0.00953046003609
0.000399170110552
-0.00962802883627
0.000361909476706
-0.00972448782629
0.000328932937059
-0.00982056931212
0.000299542116845
-0.00991695865386
0.000273168557033
-0.0100142806229
0.000249348666518
-0.0101131493183
0.000227721900622
-0.0102140070591
0.000207910412297
-0.0103173162832
0.000189737150076
-0.0104228952498
0.000172544869054
-0.0105346569637
0.000158158635446
-0.0106675224662
0.000148730868599
-0.0107767316968
0.00011119733503
-0.0108505091465
8.09469250566e-05
-0.0109043343578
4.33335711274e-05
-0.0109337371469
1.63391312803e-06
-0.0109365510052
-3.92606657315e-05
-0.0109131197236
-7.91729607749e-05
-0.0108639269223
-0.000118671873351
-0.0107895530407
-0.000157946466569
-0.0106908665695
-0.000197069186049
-0.0105690848413
-0.000236167192577
-0.0104257170007
-0.00027537591264
-0.0102625922533
-0.000314838887155
-0.0100818388438
-0.000354690304954
-0.00988591526064
-0.00039508236939
-0.00967758539577
-0.000436178646868
-0.00945992485982
-0.000478172680701
-0.00923627948886
-0.000521286260017
-0.00901023130459
-0.000565784064175
-0.00878551781879
-0.000611980810212
-0.0085659298158
-0.000660254506501
-0.00835515798792
-0.000711059833622
-0.00815659416343
-0.000764935577123
-0.00797308361267
-0.000822511899739
-0.00780663183538
-0.000884497945997
-0.00765809057032
-0.00095166288369
-0.00752683897689
-0.00102478706974
-0.00741050806968
-0.00110460260775
-0.00730477742446
-0.00119170725025
-0.00720329617422
-0.00128647589968
-0.00709775127249
-0.0013889678683
-0.00697811238787
-0.0014988483551
-0.00683304502482
-0.00161533857072
-0.00665049257315
-0.0017371676754
-0.00641838283789
-0.00186262312089
-0.00612546997705
-0.00198941178843
-0.00576219510526
-0.00211510446349
-0.00532173650374
-0.00223607622942
-0.00480040639966
-0.00235126764685
-0.00419913572579
-0.00245273006597
-0.00352042968581
-0.00255679492376
-0.00277801889937
-0.00261559719095
-0.0019771596022
-0.00280744679477
-0.00120882485959
-0.00272048591121
-0.000363762774866
-0.00520212860904
-0.00586317677858
-0.00204781355225
0.0131155177476
-0.0010915316212
0.00252807878741
-0.00173919161043
0.00344214455813
-0.00270237699701
0.00435841086078
-0.00362526052365
0.00442132148043
-0.00444547837635
0.0042117461298
-0.00510894018338
0.0038698330293
-0.00561064584207
0.00344948007937
-0.00597980859303
0.00301232876902
-0.00624866108869
0.0025993680016
-0.00644283370567
0.00222890801629
-0.00658169776703
0.00190631685917
-0.00667965895223
0.00163045158817
-0.00674713159729
0.00139696944704
-0.00679145898059
0.00120030974304
-0.00681772473923
0.00103485908377
-0.0068294325977
0.000895467710305
-0.00682898653649
0.000777634041886
-0.00681805657736
0.000677517233342
-0.00679780607786
0.000591914299404
-0.00676907141974
0.000518182921389
-0.00673245726474
0.000454174884598
-0.0066884238766
0.000398143657209
-0.00663732083079
0.000348682842519
-0.00657943143197
0.000304651920438
-0.00651497954271
0.000265134778701
-0.00644415420086
0.000229386572092
-0.00636710265442
0.000196807766874
-0.00628395006467
0.000166904599273
-0.00619476990534
0.000139272472169
-0.0060996665859
0.000113560519282
-0.00599857561193
8.94246675122e-05
-0.00589157228154
6.63486978975e-05
-0.00577556305794
4.29832240257e-05
-0.00564879154333
2.28225003332e-05
-0.00554987728488
1.3162238085e-05
-0.00547155654866
3.52345586291e-06
-0.00542041975718
-6.90138562766e-06
-0.00539787555657
-2.00017030522e-05
-0.00540173860046
-3.44990681487e-05
-0.00543009903836
-4.99222869443e-05
-0.00548114963906
-6.67565712344e-05
-0.00555273496191
-8.55205044371e-05
-0.00564237448168
-0.000106628284581
-0.00574730775751
-0.00013047039435
-0.0058645262235
-0.000157443120918
-0.00599077901958
-0.000187919552276
-0.00612261416211
-0.000222242941285
-0.00625641771037
-0.000260719538809
-0.00638847255848
-0.000303619192451
-0.00651502183723
-0.000351172307946
-0.00663234492157
-0.000403563391899
-0.0067368506977
-0.000460929142512
-0.00682517931037
-0.000523348939304
-0.00689432725896
-0.000590849225279
-0.00694176865291
-0.00066340120753
-0.00696558607803
-0.000740941754614
-0.00696456588362
-0.000823390728141
-0.00693826353909
-0.000910694962556
-0.00688698553367
-0.00100286628912
-0.00681169295511
-0.00110003614995
-0.00671378724769
-0.00120249100256
-0.00659480203532
-0.00131070006944
-0.00645599975776
-0.00142530610475
-0.00629792832737
-0.00154708442442
-0.00611997978546
-0.0016768556015
-0.0059200211263
-0.00181536584485
-0.00569417323348
-0.00196309207617
-0.0054367887033
-0.00212008806258
-0.00514074268008
-0.00228553597973
-0.00479807577887
-0.00245784150655
-0.0044012985853
-0.00263289302862
-0.0039449222718
-0.00280767731878
-0.00342870498888
-0.00296890466065
-0.0028572481339
-0.00312826406899
-0.00224901909183
-0.00322373489861
-0.00160810799644
-0.00344836669229
-0.00100717054923
-0.00332168648773
-0.000258787189435
-0.00595010476982
-0.00612226705568
-5.05610991514e-05
0.0131673675328
-0.000174071752473
0.00265209182133
-0.00177580533337
0.00504424611086
-0.00308201924957
0.00566494223344
-0.00401994660783
0.00535952595473
-0.00468868972417
0.00488073897346
-0.00513449651835
0.00431585742422
-0.00541467816128
0.00372985390563
-0.00558662204075
0.00318443958814
-0.00569191834085
0.00270481201594
-0.00575715358976
0.00229427737413
-0.00579896996905
0.00194825899521
-0.00582761065251
0.0016592180773
-0.00584913567196
0.00141862349569
-0.00586693734493
0.00121825235884
-0.00588278356367
0.00105085870152
-0.00589748409983
0.000910341955588
-0.00591132184399
0.000791664161912
-0.00592430501204
0.000690718279255
-0.00593633012039
0.000604179732995
-0.00594726080228
0.000529382275704
-0.00595698437684
0.000464191697946
-0.00596542844049
0.000406910576543
-0.00597258280476
0.000356185683026
-0.00597849852231
0.000310945926338
-0.00598329981642
0.00027034040727
-0.00598718008595
0.000233700580283
-0.00599040895319
0.000200497244462
-0.0059933321373
0.000170318142459
-0.00599636755552
0.000142827750664
-0.00600003456384
0.000117778586952
-0.00600496331486
9.49367512274e-05
-0.0060124142297
7.44122619429e-05
-0.00602514430563
5.63569267931e-05
-0.00603329486184
3.16380847941e-05
-0.00602619990639
6.7471746501e-06
-0.00600450761971
-1.74849172352e-05
-0.00596852923582
-4.21936842396e-05
-0.00592046584815
-6.73898873782e-05
-0.00586197770842
-9.23253160031e-05
-0.00579486566836
-0.000116398202074
-0.00572140554093
-0.000139608461338
-0.00564412461179
-0.000162230700271
-0.00556562620685
-0.000184594761603
-0.00548851444921
-0.000207094459448
-0.00541530544572
-0.000230209022715
-0.00534832965872
-0.0002544977309
-0.00528963485571
-0.000280585269444
-0.00524089514913
-0.000309148835733
-0.00520333350693
-0.000340911909041
-0.00517764425255
-0.000376628283289
-0.00516393622372
-0.000417073588868
-0.00516167564363
-0.000463020223017
-0.00516966158072
-0.000515222493598
-0.00518601064824
-0.000574381579047
-0.00520819247842
-0.000641124362931
-0.00523309141991
-0.000715965157448
-0.00525713399663
-0.000799290057278
-0.00527644911627
-0.000891336146257
-0.00528708186655
-0.000992206096302
-0.00528521066974
-0.00110189179209
-0.00526735953668
-0.00122033893419
-0.00523054556862
-0.00134751947609
-0.00517233619704
-0.00148352817795
-0.00509077902909
-0.00162865934168
-0.00498419284294
-0.00178346229692
-0.00485083767013
-0.0019487454037
-0.00468851214399
-0.0021254449415
-0.00449412371601
-0.0023145097501
-0.00426339190027
-0.00251630512651
-0.00399078801642
-0.00273048182915
-0.00367011239636
-0.00295360739039
-0.00329543997169
-0.00318236274508
-0.00286441844304
-0.00339997638538
-0.00237839980487
-0.00361427333947
-0.00185419708522
-0.00374803604799
-0.0012963090144
-0.004006318944
-0.000794231347605
-0.00382365204069
-0.000139849355205
-0.00660508382845
-0.00626212499802
0.000335836593672
0.012831424294
-0.000613212235121
0.00360145279885
-0.0024955999788
0.00692696126841
-0.00362136463252
0.00679098817901
-0.00428219282267
0.00602058113785
-0.00466370751432
0.00526242099219
-0.00485426271703
0.00450652964241
-0.00493207235887
0.0038077314061
-0.00495319051367
0.00320558411626
-0.00494993822277
0.00270154978283
-0.00493949520582
0.00228379543522
-0.00493043262248
0.00193913719494
-0.00492634503459
0.00165505762251
-0.00492802116216
0.00142022278756
-0.00493479673748
0.00122495166576
-0.00494534007416
0.00106133496017
-0.00495809787523
0.000923043860577
-0.00497152778594
0.000805056283903
-0.00498422427228
0.000703395045509
-0.00499496142547
0.000614920587887
-0.00500270728094
0.00053715393861
-0.00500660614932
0.000468142538863
-0.00500596433014
0.000406344942808
-0.00500022342234
0.000350548135477
-0.00498894486826
0.000299795823738
-0.00497178798008
0.000253339057258
-0.00494849786498
0.000210591605791
-0.00491889124364
0.000171098703604
-0.00488284525597
0.000134507119071
-0.00484030046429
0.000100545230745
-0.00479122185366
6.89902264958e-05
-0.00473563484763
3.96651741786e-05
-0.00467313218057
1.22511045297e-05
-0.00460295717158
-1.34585452684e-05
-0.0045369821693
-3.39635768804e-05
-0.00447835042934
-5.15091062529e-05
-0.00442788795989
-6.75722939636e-05
-0.00438676101365
-8.29562935349e-05
-0.00435531204601
-9.84881481425e-05
-0.00433295440747
-0.000114355199413
-0.0043185061756
-0.000130543944562
-0.00431062157845
-0.000147222203354
-0.00430792425541
-0.000164689933612
-0.00430906149947
-0.000183254568782
-0.00431277984341
-0.00020320814439
-0.00431800120368
-0.000224852960543
-0.00432387481502
-0.000248521605916
-0.00432979997632
-0.000274584707278
-0.00433543319217
-0.000303466040588
-0.00434066358303
-0.000335650563053
-0.00434557686364
-0.000371701982455
-0.00435038331925
-0.00041226416667
-0.00435534014409
-0.000458071041213
-0.00436063967469
-0.00050993386276
-0.00436630244094
-0.000568734964728
-0.00437204865564
-0.000635393386004
-0.00437719616241
-0.000710834980308
-0.0043805659418
-0.000795934763757
-0.00438044820989
-0.000891468574719
-0.00437461300225
-0.000998052163596
-0.00436040721163
-0.00111610661407
-0.0043349061094
-0.0012458437979
-0.00429512854703
-0.00138729589306
-0.00423825396617
-0.00154039463191
-0.00416181644825
-0.00170508070322
-0.0040638035687
-0.0018814521491
-0.00394261474495
-0.002069905489
-0.00379690174178
-0.00227112970421
-0.00362521658532
-0.0024861714571
-0.00342564523146
-0.00271586333788
-0.0031954124926
-0.00296071270574
-0.00293087436953
-0.00321814907818
-0.0026277396256
-0.00348552439832
-0.00228322174273
-0.00374451336073
-0.00189584390527
-0.00400175066803
-0.00147768304273
-0.00416626707265
-0.00102851553563
-0.00445563207389
-0.000648563527847
-0.00420403989302
-9.16947880401e-05
-0.00716194302374
-0.00635415012372
0.000343929295098
0.0124884962617
-0.00115352000785
0.00509936592276
-0.00297658841319
0.00875036951681
-0.0037771727402
0.00759182473097
-0.0041600918396
0.00640367128369
-0.00431931092456
0.00542174105606
-0.00434934306327
0.0045365959597
-0.00432445995398
0.00378282579798
-0.00428618244586
0.00316723260147
-0.00425335495991
0.00266860492657
-0.00423369059213
0.00226397801036
-0.00422922841963
0.00193449415083
-0.00423897769266
0.00166460764496
-0.00426053784456
0.00144157208744
-0.00429104673174
0.00125524703087
-0.0043276720963
0.00109774861593
-0.00436783828632
0.000963007248521
-0.00440932579415
0.00084635201249
-0.00445028975473
0.000744183378588
-0.00448924409069
0.000653715825391
-0.00452501829197
0.000572789079441
-0.00455671520967
0.000499719787646
-0.00458366426933
0.000433195959936
-0.00460538638898
0.000372192750841
-0.0046215603795
0.000315914025455
-0.00463200036351
0.000263744002738
-0.00463663646227
0.0002152137636
-0.00463550167871
0.000169970906487
-0.00462872779032
0.000127760677296
-0.00461653320917
8.83989291321e-05
-0.00459925266716
5.17765685243e-05
-0.0045772922457
1.77900769814e-05
-0.00455138827026
-1.35561795639e-05
-0.0045220952437
-4.2644859003e-05
-0.00448467750245
-7.12742299737e-05
-0.00443865116951
-9.74313533493e-05
-0.00438464339317
-0.000121486690771
-0.00432381000732
-0.0001437097504
-0.0042579465056
-0.000164291628142
-0.0041889458868
-0.000183317755539
-0.00411863935313
-0.000200838101592
-0.00404882966032
-0.00021704591919
-0.00398125076211
-0.000232309499696
-0.00391746615298
-0.000247105742672
-0.00385878657797
-0.000261976998752
-0.00380622769438
-0.000277522023428
-0.00376048687051
-0.000294387635689
-0.00372194760903
-0.000313262084334
-0.00369069269576
-0.000334864577206
-0.0036665420837
-0.000359948781073
-0.00364908530027
-0.000389302710324
-0.00363772681146
-0.000423762762171
-0.00363170904768
-0.000464218221677
-0.00363013606543
-0.000511627039536
-0.00363196183404
-0.000567014646221
-0.00363597190119
-0.000631476767419
-0.00364072836674
-0.000706155722231
-0.00364451608273
-0.000792211165431
-0.00364527556457
-0.000890756786404
-0.00364056960355
-0.00100279191838
-0.00362758714557
-0.00112910630149
-0.0036032213754
-0.00127021129945
-0.00356423209043
-0.00142626982369
-0.00350746773392
-0.00159712653786
-0.00343015266812
-0.00178234641696
-0.00333014715039
-0.00198139362017
-0.00320613379273
-0.00219384483819
-0.00305768014605
-0.00241950614458
-0.00288505305076
-0.00265872976595
-0.00268901262629
-0.00291184870893
-0.00247040305316
-0.0031792887119
-0.0022298280392
-0.00345871097052
-0.00196752051094
-0.00374784375753
-0.00168444908608
-0.0040276474177
-0.00138106742452
-0.00430522569407
-0.00106882943307
-0.00447867845889
-0.000742345712334
-0.00478234151152
-0.000502100997651
-0.00444437140986
-5.36938896611e-05
-0.00761099750555
-0.00640805788693
0.000260040873262
0.0122282716678
-0.00163545218213
0.00699509310192
-0.00320217484654
0.0103173406947
-0.00365286920468
0.00804271602798
-0.00381980184726
0.00657072947039
-0.003838757445
0.00544075060813
-0.00379014515817
0.00448797556804
-0.00373111276483
0.00372372960571
-0.00368559768494
0.00312160577208
-0.00366121855657
0.00264407276713
-0.00365914330779
0.00226171507867
-0.00367734660352
0.00195248358829
-0.00371222633876
0.00169925396746
-0.00375969598662
0.00148879780334
-0.00381580593104
0.00131110779866
-0.00387702051162
0.00115871640309
-0.00394032327997
0.00102606865359
-0.00400322550028
0.000909023804571
-0.00406373356806
0.000804473011658
-0.00412028480555
0.000710064214815
-0.00417168193409
0.000623998700968
-0.00421702339527
0.000544891190945
-0.00425564718206
0.000471666231898
-0.00428707906538
0.000403488599581
-0.0043109947257
0.000339710099159
-0.0043271871849
0.000279833316067
-0.00433554389378
0.000223483165745
-0.00433602948159
0.000170384172046
-0.00432867383964
0.000120347532943
-0.00431356630335
7.32465001185e-05
-0.00429085160261
2.90289819878e-05
-0.00426073223933
-1.23550840008e-05
-0.00422353693809
-5.07717992151e-05
-0.00418027262148
-8.59326920901e-05
-0.00413360061775
-0.000117974540323
-0.00408385905752
-0.000147212304968
-0.00403158469337
-0.000173813651259
-0.00397717615676
-0.00019818903427
-0.00392092725751
-0.000220630720703
-0.00386305707818
-0.000241300288866
-0.00380373718959
-0.000260292456407
-0.0037432028679
-0.000277736783087
-0.00368183798184
-0.000293851495529
-0.00362019590034
-0.000308942767646
-0.00355898451859
-0.000323398498067
-0.00349903247925
-0.000337694475151
-0.00344124301069
-0.000352404668444
-0.00338653093217
-0.000368202773146
-0.00333575893658
-0.00038586346463
-0.00328966870087
-0.000406257922549
-0.00324882527019
-0.000430355501881
-0.00321356225617
-0.000459220028034
-0.00318394560321
-0.00049401408835
-0.00315973659231
-0.000535995824432
-0.00314037052959
-0.000586522484976
-0.00312492800136
-0.000647039754343
-0.00311211460558
-0.000719070389315
-0.00310022755283
-0.000804177685144
-0.00308713166053
-0.000903912261662
-0.0030702337028
-0.00101972761703
-0.00304650092853
-0.00115285577304
-0.00301250710845
-0.00130419947177
-0.00296459742056
-0.00147415199251
-0.00289910895006
-0.00166256503099
-0.00281274056497
-0.00186864450307
-0.00270289145378
-0.00209115367934
-0.00256801495246
-0.00232862005857
-0.00240805452452
-0.00257936543495
-0.00222436278534
-0.00284233066024
-0.00201983391222
-0.00311631439196
-0.00179815885982
-0.00340092678953
-0.00156417366437
-0.00369269589849
-0.00132360768317
-0.00398844164489
-0.00108316750611
-0.00426818906379
-0.000848028501583
-0.00454052239634
-0.000630697052571
-0.0046962589595
-0.000427237713827
-0.00498603525509
-0.000322979950285
-0.00454917405002
1.3666595742e-05
-0.00794800788196
-0.00639471982356
0.000139706502981
0.0120893563266
-0.00199621080238
0.00913135087344
-0.00318368237778
0.0115050538344
-0.00333829995884
0.00819749261461
-0.00337919162971
0.00661170879224
-0.00333498399723
0.00539656662764
-0.00326845843095
0.00442141767896
-0.00321732466401
0.00367251621002
-0.00319190698501
0.00309606767257
-0.00319336625857
0.00264537639224
-0.00321953549508
0.002287700122
-0.00326638856732
0.00199912939233
-0.00332911556248
0.00176175857076
-0.00340293188646
0.00156238191869
-0.00348350799078
0.00139144937069
-0.00356714654491
0.00124212182186
-0.00365081567411
0.00110951166399
-0.0037321155029
0.000990106238533
-0.0038092020119
0.000881354423549
-0.003880701663
0.000781371223376
-0.00394562091515
0.000688739707317
-0.00400326875083
0.000602374448573
-0.00405318710527
0.000521434412427
-0.0040950975756
0.000445262231822
-0.00412885715462
0.000373345972612
-0.00415442625338
0.000305290883807
-0.00417184424681
0.000240800826035
-0.00418121224389
0.000179662397114
-0.00418268368632
0.000121737725066
-0.00417645680487
6.6946073184e-05
-0.00416279006411
1.52931142283e-05
-0.00414200422371
-3.32079087022e-05
-0.00411456135373
-7.82860482224e-05
-0.00407981575481
-0.000120756081593
-0.00403718661444
-0.000160692446566
-0.00398716865669
-0.000197331624956
-0.00393035216919
-0.000230747691214
-0.00386764756337
-0.000261028306848
-0.00380013220289
-0.00028829975952
-0.00372891450411
-0.000312690428025
-0.00365505170762
-0.000334346293611
-0.00357952639152
-0.000353470197395
-0.00350325099652
-0.000370349873341
-0.00342707069988
-0.00038535828442
-0.00335176671028
-0.000398946129201
-0.00327806757515
-0.00041164239759
-0.00320666059368
-0.000424060788023
-0.00313820019716
-0.000436909467009
-0.00307330247581
-0.000450999697105
-0.00301253065344
-0.000467258151866
-0.00295636262754
-0.000486737445633
-0.00290515056655
-0.000510630546408
-0.00285906404983
-0.000540280114651
-0.0028180314613
-0.000577189230937
-0.00278167068665
-0.000623022709884
-0.00274922833889
-0.000679601149333
-0.00271951676335
-0.000748878338553
-0.00269086807217
-0.000832901031484
-0.00266110106962
-0.000933730718701
-0.00262750045499
-0.00105335659236
-0.00258685500448
-0.00119350537645
-0.00253551965175
-0.00135551524449
-0.00246960406255
-0.00154002350779
-0.00238513006516
-0.00174697136512
-0.00227855822748
-0.00197512603738
-0.0021472831222
-0.00222232072073
-0.00199002447081
-0.00248575986356
-0.00180692829442
-0.00276234096814
-0.00160044206956
-0.00304871653843
-0.00137603614787
-0.00334064523418
-0.00114034816757
-0.00363658075395
-0.000902252933403
-0.00393079120941
-0.000673622073022
-0.00421715315951
-0.000466531425118
-0.00447539628354
-0.000293344972839
-0.00471397969392
-0.000158797073675
-0.00483105951447
-0.000100055275956
-0.00504520569679
-0.000102217631936
-0.00454733183381
0.000171240690207
-0.00822211974954
-0.00622388037317
1.74105102303e-05
0.0120716519565
-0.00222297391259
0.0113718424049
-0.00299060784536
0.0122728192286
-0.00294688717786
0.00815387475562
-0.00294027708029
0.00660514793417
-0.00288128882831
0.00533757820078
-0.0028270394452
0.00436712577128
-0.00279948971778
0.00364488882273
-0.00280128103818
0.00309775101993
-0.00283086998463
0.00267483190488
-0.00288453113998
0.00234120578612
-0.00295718610464
0.00207161270453
-0.0030434077704
0.00184779665576
-0.00313810668267
0.00165689205989
-0.00323687044948
0.00149002300892
-0.00333607345404
0.00134113899414
-0.00343286629872
0.00120612514346
-0.0035250941691
0.00108216492977
-0.0036111915643
0.000967293306344