/*--------------------------------*- C++ -*----------------------------------*\
| =========                 |                                                 |
| \\      /  F ield         | OpenFOAM: The Open Source CFD Toolbox           |
|  \\    /   O peration     | Version:  v1806                                 |
|   \\  /    A nd           | Web:      www.OpenFOAM.com                      |
|    \\/     M anipulation  |                                                 |
\*---------------------------------------------------------------------------*/
FoamFile
{
    version     2.0;
    format      ascii;
    class       volVectorField;
    location    "200";
    object      U;
}
// * * * * * * * * * * * * * * * * * * * * * * * * * * * * * * * * * * * * * //

dimensions      [0 1 -1 0 0 0 0];


internalField   nonuniform List<vector> 
6400
(
(0.00928179021437 0.0184783622291 0)
(0.0219319101088 0.0113261648229 0)
(0.0289136513871 0.00813719821685 0)
(0.0293541701052 0.0073262967448 0)
(0.0238837689003 0.00167704209008 0)
(0.00279830684272 -0.0111268972818 0)
(-0.0277342992457 -0.0152705757847 0)
(-0.0498590954399 -0.0142466675873 0)
(-0.0734723072332 -0.0136579595936 0)
(-0.0966081548438 -0.0130912399942 0)
(-0.119036338816 -0.0124536350089 0)
(-0.140526918488 -0.0117583420822 0)
(-0.160923404092 -0.0110301699329 0)
(-0.180128750691 -0.0102922107678 0)
(-0.198094762982 -0.009562805366 0)
(-0.214811177609 -0.00885533996646 0)
(-0.230295790497 -0.00817881907398 0)
(-0.244585996274 -0.00753864806448 0)
(-0.257731865912 -0.00693742884287 0)
(-0.269790714447 -0.00637568027721 0)
(-0.280823012181 -0.00585245471193 0)
(-0.290889443269 -0.0053658365422 0)
(-0.300048902395 -0.00491333259685 0)
(-0.30835722734 -0.00449216212952 0)
(-0.315866487361 -0.00409946570852 0)
(-0.322624676705 -0.00373244790309 0)
(-0.328675702069 -0.00338846849528 0)
(-0.334059535145 -0.003065089877 0)
(-0.338812489845 -0.00276008983716 0)
(-0.342967567612 -0.00247145198405 0)
(-0.346554819578 -0.00219734432815 0)
(-0.349601669677 -0.00193609079611 0)
(-0.352133153085 -0.00168611933086 0)
(-0.354172238402 -0.00144576144532 0)
(-0.355739464964 -0.00121282338782 0)
(-0.356852336609 -0.000984292260181 0)
(-0.357524789228 -0.000757023833065 0)
(-0.357769536758 -0.000529390243969 0)
(-0.357603837539 -0.000301127883855 0)
(-0.357026211736 -7.64660964542e-05 0)
(-0.35605306785 0.000140694011939 0)
(-0.354699168709 0.000349965908034 0)
(-0.352978597345 0.000552057267374 0)
(-0.350903721143 0.000748083255711 0)
(-0.348484824825 0.000939325285804 0)
(-0.345729924291 0.00112714184036 0)
(-0.342644666018 0.00131292777188 0)
(-0.33923228152 0.00149808266305 0)
(-0.335493596607 0.00168398042242 0)
(-0.331427103735 0.00187193234687 0)
(-0.32702910805 0.00206314833417 0)
(-0.322293954888 0.00225869332424 0)
(-0.31721434259 0.00245944694329 0)
(-0.3117817175 0.00266606513564 0)
(-0.305986740759 0.0028789536059 0)
(-0.299819806947 0.00309825276243 0)
(-0.293271585764 0.00332384486168 0)
(-0.286333548212 0.00355538290613 0)
(-0.278998430527 0.00379235150268 0)
(-0.271260581493 0.00403415772902 0)
(-0.263116134794 0.00428026039202 0)
(-0.254562945461 0.00453033355187 0)
(-0.245600229618 0.00478446953171 0)
(-0.236227849658 0.00504341587393 0)
(-0.226445192749 0.00530884928838 0)
(-0.216249596596 0.0055836797354 0)
(-0.20563428484 0.00587238178151 0)
(-0.194585800465 0.00618133895099 0)
(-0.183080933172 0.00651919813366 0)
(-0.171083137178 0.00689716725107 0)
(-0.15853844804 0.00732918457677 0)
(-0.145371273676 0.00783188687248 0)
(-0.131481792617 0.0084239670187 0)
(-0.116747238926 0.00912352114005 0)
(-0.101022258691 0.00994128800785 0)
(-0.0841225594173 0.0108715301427 0)
(-0.0658305906366 0.0118882671216 0)
(-0.0461993445813 0.0129115848735 0)
(-0.0265946418118 0.0134870623058 0)
(-0.0107026000927 0.0114720809636 0)
(0.000973670061771 0.0282133312871 0)
(0.0112344392149 0.0148399236289 0)
(0.0151079683871 0.00569266944417 0)
(-0.0162066613133 -0.018971819546 0)
(-0.0343244240281 -0.0268690824458 0)
(-0.0548679887953 -0.0327371065084 0)
(-0.0777917061327 -0.0350422350456 0)
(-0.100587135528 -0.0351610100794 0)
(-0.124102457119 -0.0347721161628 0)
(-0.147141226288 -0.0339139314443 0)
(-0.169363445465 -0.0326688507052 0)
(-0.190514683166 -0.0311377329319 0)
(-0.210441959768 -0.0294152592287 0)
(-0.22905943771 -0.0275824884602 0)
(-0.24633281411 -0.0257046049249 0)
(-0.262266056843 -0.0238313851868 0)
(-0.27689037866 -0.0219988611229 0)
(-0.290255197221 -0.020231480465 0)
(-0.30242097636 -0.0185443678544 0)
(-0.313453769118 -0.0169454592426 0)
(-0.323421230949 -0.0154373839331 0)
(-0.332389847908 -0.0140190409241 0)
(-0.34042313019 -0.0126868649823 0)
(-0.347580550192 -0.0114358013755 0)
(-0.353916998526 -0.0102600347514 0)
(-0.35948266093 -0.00915351178275 0)
(-0.364323119649 -0.00811028604701 0)
(-0.368479638834 -0.00712474286572 0)
(-0.371989535774 -0.00619172506445 0)
(-0.37488661427 -0.00530659023154 0)
(-0.377201655003 -0.00446519232013 0)
(-0.378962560053 -0.00366385277849 0)
(-0.380195092891 -0.00289930040656 0)
(-0.380923180573 -0.00216817230839 0)
(-0.381169025128 -0.0014662014102 0)
(-0.380951398591 -0.000788743489348 0)
(-0.380283327241 -0.000134270832955 0)
(-0.379192500087 0.000495041589346 0)
(-0.377708031695 0.00109903806609 0)
(-0.375865879353 0.00167997332702 0)
(-0.373682050937 0.00223799979428 0)
(-0.371169693225 0.00277486857654 0)
(-0.368339084917 0.00329305333598 0)
(-0.365198623249 0.00379542144601 0)
(-0.361754978515 0.00428508328272 0)
(-0.358013047979 0.0047653141295 0)
(-0.353975861016 0.0052394922687 0)
(-0.349644497533 0.00571103139098 0)
(-0.345018048485 0.0061832974123 0)
(-0.340093636449 0.00665950890653 0)
(-0.334866510084 0.007142622498 0)
(-0.329330221791 0.00763520968483 0)
(-0.323476893938 0.00813933217419 0)
(-0.317297571946 0.0086564270193 0)
(-0.310782656158 0.00918721274385 0)
(-0.303922394441 0.00973163080965 0)
(-0.296707409644 0.0102888354092 0)
(-0.289129224926 0.0108572459107 0)
(-0.281180743465 0.0114346728889 0)
(-0.272856629663 0.0120185276 0)
(-0.264153537037 0.012606120134 0)
(-0.255070123286 0.0131950486488 0)
(-0.245606798161 0.0137836767486 0)
(-0.235765150816 0.0143716941319 0)
(-0.22554701263 0.0149607525337 0)
(-0.214953117077 0.015555166381 0)
(-0.203981335766 0.0161626589781 0)
(-0.192624494058 0.0167951188151 0)
(-0.180867754743 0.0174693592625 0)
(-0.168685563446 0.0182077483172 0)
(-0.156038266448 0.019038450834 0)
(-0.142868639884 0.0199952127244 0)
(-0.129099209585 0.0211159011182 0)
(-0.11463189011 0.0224368213669 0)
(-0.0993484796577 0.0239784381042 0)
(-0.0831047720392 0.0257233609036 0)
(-0.0657302105458 0.0275949674127 0)
(-0.0471596480223 0.0293746695601 0)
(-0.0280882641959 0.0302053679494 0)
(-0.0114477348959 0.0271948236743 0)
(-0.00654183799782 0.0285812680967 0)
(-0.0102522176141 4.32488024624e-05 0)
(-0.0314955210613 -0.0233601509062 -9.13695288109e-29)
(-0.0490114661977 -0.0368500736975 5.42528577661e-29)
(-0.0686623553282 -0.0467348881493 4.11974685923e-29)
(-0.0887659306234 -0.053944576669 -3.33964322979e-29)
(-0.109430876751 -0.0574277916386 2.84420300472e-29)
(-0.130388098643 -0.0582122219484 -2.52585514131e-29)
(-0.151433388967 -0.0576275783462 0)
(-0.171887700617 -0.0560626991975 0)
(-0.191435628654 -0.0538002986315 0)
(-0.209863409673 -0.0510607654755 0)
(-0.227060014942 -0.0480228456928 0)
(-0.242980973044 -0.0448290968004 0)
(-0.257628556587 -0.0415894230403 0)
(-0.271036460836 -0.0383849830525 0)
(-0.28325825115 -0.0352725524075 0)
(-0.294358686449 -0.0322890303669 0)
(-0.30440740325 -0.0294557475275 0)
(-0.313474517555 -0.0267823337536 0)
(-0.321627732803 -0.0242700114553 0)
(-0.328930590112 -0.021914279308 0)
(-0.335441558606 -0.0197070105209 0)
(-0.341213665103 -0.0176380372892 0)
(-0.34629457091 -0.0156963029261 0)
(-0.350726834652 -0.0138706611204 0)
(-0.354548337027 -0.0121503964531 0)
(-0.357792760915 -0.0105255482217 0)
(-0.360490120643 -0.00898710506394 0)
(-0.362667406788 -0.00752706826801 -7.39151634756e-29)
(-0.364348531311 -0.00613843857566 7.38529854393e-29)
(-0.365555325787 -0.00481518833858 0)
(-0.366307988893 -0.00355197753269 0)
(-0.366626086759 -0.00234351522838 0)
(-0.366527303292 -0.00118414305635 0)
(-0.36602233224 -7.01195379271e-05 0)
(-0.36512918875 0.000994287532516 0)
(-0.363887872681 0.00200513135866 0)
(-0.36229669065 0.00296847104899 0)
(-0.36036907208 0.00389077248528 0)
(-0.35811597345 0.00477791700096 0)
(-0.355548206189 0.00563429433693 0)
(-0.352675368472 0.00646413289309 0)
(-0.349505646245 0.00727185700539 0)
(-0.346045660235 0.00806217985176 0)
(-0.342300319172 0.00884009565378 0)
(-0.338272681407 0.00961081771514 0)
(-0.333963844043 0.010379678483 0)
(-0.329372878795 0.0111519916138 0)
(-0.324496832387 0.0119328835004 0)
(-0.319330806895 0.012727096204 0)
(-0.313868132313 0.0135387756524 0)
(-0.308100638857 0.0143712542113 0)
(-0.30201903013 0.0152268491547 0)
(-0.295613350304 0.0161066928488 0)
(-0.288873529206 0.0170106215354 0)
(-0.281789978618 0.0179371419566 0)
(-0.274354203284 0.0188835029219 0)
(-0.26655937932 0.0198458870204 0)
(-0.258400847055 0.0208197418706 0)
(-0.24987645776 0.0218002540458 0)
(-0.240986715217 0.0227829717783 0)
(-0.231734654171 0.0237645630743 0)
(-0.22212540784 0.0247436978366 0)
(-0.212165422806 0.0257220352947 0)
(-0.201861290364 0.0267052818106 0)
(-0.19121817111 0.0277043099647 0)
(-0.180237859845 0.028736206334 0)
(-0.168916473864 0.0298252944528 0)
(-0.15724164171 0.0310040253531 0)
(-0.145189516486 0.0323130386537 0)
(-0.132721815326 0.0338005170196 0)
(-0.119782635998 0.0355200421061 0)
(-0.106295750393 0.0375231577158 0)
(-0.092163561789 0.0398418514517 0)
(-0.0772663205928 0.0424566877427 0)
(-0.0614505953578 0.0452451050608 0)
(-0.0445456262227 0.0478357945836 0)
(-0.0269025675108 0.0490095653553 0)
(-0.0104134493633 0.0454841532233 0)
(-0.0166655182416 0.014331716892 0)
(-0.0323246510675 -0.0192030332696 0)
(-0.050612460779 -0.0395440357542 0)
(-0.0695046330618 -0.0551580150927 0)
(-0.088880132754 -0.0662515315527 0)
(-0.108124682872 -0.0736946472965 0)
(-0.127230527513 -0.0773865371968 0)
(-0.14610506389 -0.0781819742364 0)
(-0.164531211866 -0.0770885669964 0)
(-0.18218494231 -0.0746587386157 0)
(-0.198885947407 -0.0713163254148 0)
(-0.214519019697 -0.0673835776503 0)
(-0.229038820102 -0.0631107697229 0)
(-0.242446755072 -0.0586893709066 0)
(-0.254775154715 -0.0542613343035 0)
(-0.266074436962 -0.0499272215492 0)
(-0.276403851173 -0.0457539113456 0)
(-0.285825148829 -0.0417818187174 0)
(-0.29439855943 -0.0380313680644 0)
(-0.30218047034 -0.0345085244502 0)
(-0.309222293084 -0.031209308576 0)
(-0.315570107826 -0.0281233338165 0)
(-0.321264785612 -0.0252364683559 0)
(-0.326342351584 -0.0225327726103 0)
(-0.330834504391 -0.0199958541157 0)
(-0.334769162401 -0.0176097491725 0)
(-0.338171002563 -0.0153594854173 0)
(-0.341061982562 -0.0132314201609 0)
(-0.343461841873 -0.011213393856 0)
(-0.345388548947 -0.00929472529801 0)
(-0.346858426923 -0.00746615611236 0)
(-0.347886800828 -0.00571975134585 0)
(-0.348489016087 -0.00404833481377 0)
(-0.348680964163 -0.00244477036929 0)
(-0.348475735279 -0.000903037150316 0)
(-0.347875463723 0.000578652779154 0)
(-0.346925364799 0.00199564857348 0)
(-0.345620237455 0.00335006327435 0)
(-0.343976616658 0.0046485320678 0)
(-0.342006836577 0.00589524649256 0)
(-0.33972267666 0.00709523715377 0)
(-0.337135110395 0.00825370258709 0)
(-0.334254012785 0.00937615043024 0)
(-0.33108795143 0.0104685044854 0)
(-0.327643983254 0.0115371486865 0)
(-0.323927455875 0.0125889049681 8.81074892754e-29)
(-0.319941823906 0.0136309510733 -8.88795543749e-29)
(-0.315688497141 0.0146706810586 0)
(-0.311166739863 0.015715511337 0)
(-0.306373640898 0.0167726363434 0)
(-0.301304172953 0.0178487426023 0)
(-0.29595135742 0.0189496941599 0)
(-0.290306545814 0.0200802086892 0)
(-0.284359822533 0.0212435484596 0)
(-0.278100524784 0.0224412555928 0)
(-0.271517864975 0.0236729642038 0)
(-0.264601630012 0.0249363248513 0)
(-0.257342916388 0.0262270744327 1.24210709993e-28)
(-0.24973485353 0.0275392813025 -1.26998456519e-28)
(-0.241773252224 0.028865786624 0)
(-0.233457116828 0.030198853648 0)
(-0.224788951544 0.0315310260284 0)
(-0.215774799475 0.0328561821115 0)
(-0.206423973747 0.0341707495924 0)
(-0.196748424111 0.0354750822366 0)
(-0.186761753943 0.0367748760431 0)
(-0.176477776718 0.0380827645954 0)
(-0.165908782395 0.0394196839554 0)
(-0.155063582055 0.0408161800015 0)
(-0.143944721452 0.0423139993637 0)
(-0.132545645971 0.0439660573227 0)
(-0.120848353701 0.0458356129598 0)
(-0.108819848561 0.0479948396303 0)
(-0.0964074954792 0.0505173331121 0)
(-0.0835356773211 0.0534607182689 0)
(-0.0701064920147 0.056830957263 0)
(-0.0559764468825 0.0605138889472 0)
(-0.0408611977852 0.0641164830484 0)
(-0.0250493167376 0.0661863776419 0)
(-0.0092195895944 0.062878795419 0)
(-0.023135522465 -0.0130201666698 0)
(-0.0391525545173 -0.0384932795042 0)
(-0.0598479246663 -0.0587197922457 0)
(-0.0798815691123 -0.0743710828614 0)
(-0.0991950651226 -0.085344915249 0)
(-0.117651109985 -0.0922272121393 0)
(-0.135347979254 -0.0954095313002 0)
(-0.152323264499 -0.0956845867221 0)
(-0.168503023192 -0.0938665916725 0)
(-0.183780508105 -0.0905509357424 0)
(-0.198105475543 -0.0862243295753 0)
(-0.211458934574 -0.0812677237651 0)
(-0.223855748203 -0.0759750310765 0)
(-0.235331779126 -0.0705660191374 0)
(-0.245934402915 -0.0651984425285 0)
(-0.255714869394 -0.059979546166 0)
(-0.264723371081 -0.0549768389872 0)
(-0.273006319073 -0.0502277637539 0)
(-0.280605211248 -0.0457479538691 0)
(-0.287556490039 -0.0415379527813 0)
(-0.293891930426 -0.0375884466978 0)
(-0.299639250752 -0.0338841829411 0)
(-0.304822743709 -0.0304067981828 0)
(-0.309463880628 -0.0271367919104 0)
(-0.313581814601 -0.0240548488835 0)
(-0.317193818494 -0.0211426743601 0)
(-0.32031562826 -0.0183834962407 0)
(-0.322961787143 -0.0157623336953 0)
(-0.325145976495 -0.0132660959018 0)
(-0.326881153919 -0.0108835225062 0)
(-0.328179600014 -0.0086050916746 -8.00764982428e-29)
(-0.329053749951 -0.00642279361399 8.03851805658e-29)
(-0.329517305525 -0.00432941936205 0)
(-0.329584174372 -0.00231818705178 0)
(-0.329262898417 -0.000385474347609 0)
(-0.328551845413 0.00146482200698 0)
(-0.327509260488 0.00323245900209 0)
(-0.326122118622 0.00492622863971 0)
(-0.324407832236 0.00655120074645 0)
(-0.322378135795 0.00811269451558 0)
(-0.320044974875 0.00961634143834 0)
(-0.317419737116 0.0110681736954 0)
(-0.314512923786 0.0124747775455 0)
(-0.311333854643 0.0138433974757 0)
(-0.307890390307 0.0151819734252 0)
(-0.304188666571 0.0164991059679 0)
(-0.300232848781 0.017803947483 0)
(-0.296024922051 0.0191060188293 0)
(-0.29156453764 0.0204149514317 0)
(-0.286848937945 0.0217401592558 0)
(-0.28187298359 0.0230904495182 0)
(-0.27662930354 0.0244735892867 0)
(-0.271108585213 0.0258958519087 0)
(-0.265300013838 0.0273615761975 0)
(-0.259191860112 0.0288727775879 0)
(-0.252772205787 0.0304288558011 0)
(-0.246029776578 0.0320264469608 0)
(-0.238954843687 0.0336594691993 0)
(-0.231540132455 0.0353193972887 0)
(-0.223781671669 0.0369958038262 0)
(-0.215679507968 0.0386771730391 0)
(-0.207238207947 0.040351985273 0)
(-0.198467070224 0.0420100837249 0)
(-0.189380021147 0.0436441673445 0)
(-0.179995092122 0.0452516279082 0)
(-0.170333626411 0.046836152504 0)
(-0.160418883108 0.0484099322473 0)
(-0.150274291086 0.0499952956108 0)
(-0.139922151773 0.0516258389549 0)
(-0.129380486435 0.0533495333261 0)
(-0.118659881296 0.0552282060197 0)
(-0.1077621148 0.0573359058162 0)
(-0.0966766706774 0.0597601051896 0)
(-0.0853750367218 0.0625949927089 0)
(-0.073803735143 0.0659254078449 0)
(-0.0618878715349 0.0697925166197 0)
(-0.0495173818994 0.0741164854385 0)
(-0.0362690255581 0.0785827670109 0)
(-0.0226510735922 0.0816477362232 0)
(-0.00790022657328 0.0788384959377 0)
(-0.0210515732189 -0.0372033334454 0)
(-0.0401273038666 -0.0613674803245 0)
(-0.0629906751784 -0.0798707505992 0)
(-0.0836236705085 -0.094167915391 0)
(-0.102750294169 -0.103986632267 0)
(-0.120452291224 -0.109748438312 0)
(-0.136930745395 -0.111948583814 0)
(-0.152334635628 -0.111316597969 0)
(-0.166728894725 -0.10857688547 0)
(-0.180150957152 -0.104329198401 0)
(-0.192649126704 -0.0990773508872 0)
(-0.204275023518 -0.0932225005942 0)
(-0.215085102092 -0.0870729034832 0)
(-0.225134783147 -0.0808552070016 0)
(-0.234474918213 -0.0747279125054 0)
(-0.243149630862 -0.0687950965761 0)
(-0.251195838174 -0.0631192297624 0)
(-0.258643867043 -0.0577323095656 0)
(-0.265518609041 -0.0526449640084 0)
(-0.271840777871 -0.0478535316247 0)
(-0.277628020241 -0.0433453444446 0)
(-0.282895795624 -0.0391025358123 0)
(-0.287657961359 -0.0351047072226 0)
(-0.291927227354 -0.0313307420801 0)
(-0.295715416822 -0.0277599958371 0)
(-0.299033669858 -0.0243730645208 0)
(-0.301892591188 -0.0211522399779 0)
(-0.304302399225 -0.0180817334179 0)
(-0.306273337696 -0.0151477453919 0)
(-0.307814761263 -0.0123384622513 0)
(-0.308936554754 -0.00964402565688 0)
(-0.309649279401 -0.00705614268483 0)
(-0.309965398334 -0.00456757276633 0)
(-0.3098959694 -0.00217229245842 0)
(-0.309441737653 0.000131766970664 0)
(-0.308635540158 0.00233798386305 0)
(-0.307482944525 0.00444786548588 0)
(-0.3059955633 0.006471884145 0)
(-0.304187795625 0.00841443297898 0)
(-0.302072836317 0.010280925217 0)
(-0.299663593386 0.0120773722587 0)
(-0.296972508692 0.0138105119561 0)
(-0.294011270895 0.0154879451991 0)
(-0.290790486634 0.0171182340709 0)
(-0.287319338342 0.0187109335766 0)
(-0.283605244037 0.0202765434944 0)
(-0.279653534352 0.0218263722514 0)
(-0.275467166134 0.0233723066209 0)
(-0.271046496106 0.0249264842777 0)
(-0.266389142722 0.0265008705553 0)
(-0.261489965785 0.0281067490102 0)
(-0.256341192618 0.0297541454474 0)
(-0.250932715044 0.0314512155225 0)
(-0.245252572965 0.0332036376435 0)
(-0.239287629843 0.0350140641273 0)
(-0.233024427119 0.0368816862879 0)
(-0.226450196566 0.0388019801788 0)
(-0.219553972254 0.0407667021384 0)
(-0.21232774401 0.0427641762017 0)
(-0.20476756029 0.044779932946 0)
(-0.196874482479 0.0467977033803 0)
(-0.18865535927 0.0488007213024 0)
(-0.18012314136 0.0507735293056 0)
(-0.171297070057 0.0527035944491 0)
(-0.162202021939 0.0545839966172 0)
(-0.152868097537 0.0564147530099 0)
(-0.143329130094 0.0582060782872 0)
(-0.13362031067 0.0599805061335 0)
(-0.12377849608 0.0617724110442 0)
(-0.113837761438 0.0636347275462 0)
(-0.103825544705 0.0656374604024 0)
(-0.0937620614549 0.067862688311 0)
(-0.0836568011573 0.0704111436171 0)
(-0.0735046987791 0.073396982226 0)
(-0.0632709768009 0.0769313953094 0)
(-0.0528975603208 0.0810957492816 0)
(-0.0423473957753 0.0858530993498 0)
(-0.0309885559413 0.09100866395 0)
(-0.0198376237547 0.0950749614621 0)
(-0.00648928808266 0.0929917492279 0)
(-0.0189167212473 -0.0640951508615 0)
(-0.0390137328957 -0.0856985396154 0)
(-0.0627035606124 -0.101755885378 0)
(-0.0832397540006 -0.114030206706 0)
(-0.101929042693 -0.122106368656 0)
(-0.118849524748 -0.126344134286 0)
(-0.13426909599 -0.127241367007 0)
(-0.148403338366 -0.12546933045 0)
(-0.161411208474 -0.121696089048 0)
(-0.173421475356 -0.116505615986 0)
(-0.184547530287 -0.110392032705 1.17204213532e-28)
(-0.194885151997 -0.103749375645 -1.15754063323e-28)
(-0.204514508951 -0.0968773983373 0)
(-0.213499535298 -0.0899927012761 0)
(-0.221889262352 -0.083243265076 0)
(-0.229720015975 -0.0767234168601 0)
(-0.237018205936 -0.0704874857678 0)
(-0.243803088653 -0.0645612367627 0)
(-0.250089120209 -0.0589508586564 0)
(-0.255887730709 -0.0536497044099 0)
(-0.261208528399 -0.0486431757559 0)
(-0.266060047792 -0.0439121765713 0)
(-0.270450146349 -0.0394355162903 0)
(-0.274386232074 -0.0351915547898 0)
(-0.277875374861 -0.0311592969498 0)
(-0.280924383025 -0.0273191173124 0)
(-0.283539893898 -0.0236532202869 0)
(-0.285728485016 -0.0201458907251 0)
(-0.287496832062 -0.0167835745153 0)
(-0.288851557836 -0.0135549063494 0)
(-0.289799705552 -0.0104506230898 0)
(-0.290349810566 -0.00746307261832 8.9149773624e-29)
(-0.2905124985 -0.00458585047651 -8.9964199997e-29)
(-0.290295778461 -0.00181482332349 0)
(-0.289695095074 0.000850380106984 0)
(-0.288758557136 0.0034054870933 0)
(-0.287473140963 0.0058527455948 0)
(-0.285857843652 0.00819976708546 0)
(-0.283925999841 0.0104518778206 0)
(-0.281691712266 0.0126146114615 0)
(-0.279169210453 0.0146941744639 0)
(-0.276372569373 0.016697773581 0)
(-0.273315324036 0.0186338286576 0)
(-0.270010054467 0.020512098026 0)
(-0.266467954119 0.0223437166638 0)
(-0.262698395155 0.0241411393791 0)
(-0.258708506665 0.0259179781903 0)
(-0.254502787401 0.0276887230451 0)
(-0.250082781359 0.0294683375888 0)
(-0.245446851026 0.0312717273276 0)
(-0.24059008812 0.0331130876728 0)
(-0.235504400592 0.0350051548121 0)
(-0.230178810425 0.0369583955276 0)
(-0.224599990168 0.0389801869185 0)
(-0.218753041277 0.041074059311 0)
(-0.212622513429 0.0432390699093 0)
(-0.206193644104 0.0454693854802 0)
(-0.199453741697 0.0477542022697 0)
(-0.19239364917 0.0500780092504 0)
(-0.185009172702 0.0524213051111 0)
(-0.177302311405 0.0547618695761 0)
(-0.169282427733 0.0570760954449 0)
(-0.160966495811 0.0593417712124 0)
(-0.152379979489 0.0615390474219 0)
(-0.143555405755 0.0636552724526 0)
(-0.134532921181 0.0656846889766 0)
(-0.125358636903 0.0676334466526 0)
(-0.116080032353 0.0695236882791 0)
(-0.10675070785 0.071387244485 0)
(-0.0974213076453 0.0732806190393 0)
(-0.0881376783935 0.0752831490314 0)
(-0.0789393803402 0.0774830773292 0)
(-0.0698515846162 0.0799926755337 0)
(-0.0608943684831 0.0829473602895 0)
(-0.0520482862604 0.0864837682823 0)
(-0.0432565065904 0.0907256534322 0)
(-0.0346075486989 0.0956883668196 0)
(-0.0251510563078 0.101285606035 0)
(-0.0166776249236 0.106243382576 0)
(-0.00500353112113 0.105063816449 0)
(-0.0171378393955 -0.0906518197422 0)
(-0.0371563828138 -0.109867983062 0)
(-0.0605504395823 -0.123457957972 0)
(-0.0804261041115 -0.133481261816 0)
(-0.0984309494937 -0.13955636096 0)
(-0.114515986016 -0.14205567441 0)
(-0.128981970046 -0.141475478296 0)
(-0.142070546687 -0.138447735005 0)
(-0.15399114638 -0.133597092254 0)
(-0.164921614166 -0.127479066979 0)
(-0.175010781266 -0.120561214349 0)
(-0.18437704968 -0.113213122507 0)
(-0.193111170591 -0.105711819068 0)
(-0.201279274385 -0.0982539197799 0)
(-0.208927533224 -0.0909710390063 0)
(-0.216087056438 -0.0839451004077 0)
(-0.222778418146 -0.0772217420315 0)
(-0.229015315812 -0.0708210957817 0)
(-0.234807222224 -0.0647459687665 0)
(-0.240161121825 -0.0589878223988 0)
(-0.245082540244 -0.0535310502432 0)
(-0.249576099287 -0.0483560076798 0)
(-0.253645780179 -0.0434411584052 0)
(-0.257295072354 -0.0387645926778 0)
(-0.260527076804 -0.0343050705901 0)
(-0.263344607621 -0.0300427482706 0)
(-0.26575035221 -0.0259596840645 0)
(-0.267747064983 -0.0220401551932 0)
(-0.26933770643 -0.0182707766918 0)
(-0.270525448679 -0.0146405046977 0)
(-0.271314443677 -0.0111405053747 0)
(-0.27171101944 -0.00776349843029 0)
(-0.271723170485 -0.0045036460848 0)
(-0.271354815883 -0.00135909888726 0)
(-0.270598255102 0.00166676215372 0)
(-0.269509420324 0.00456979717252 0)
(-0.268067371175 0.00735408087063 0)
(-0.266293415282 0.010024718638 0)
(-0.264201112358 0.0125861445258 0)
(-0.261805933287 0.015043287065 0)
(-0.25912402546 0.0174021442579 0)
(-0.256171772106 0.0196701400856 0)
(-0.252965288063 0.0218563630658 0)
(-0.249519901954 0.0239717098841 0)
(-0.245849619854 0.0260289337289 1.05834582087e-28)
(-0.241966576874 0.0280425853741 -1.06564131906e-28)
(-0.237880491372 0.0300288296788 0)
(-0.233598146078 0.0320051185329 0)
(-0.229122930133 0.0339897045819 0)
(-0.224454486587 0.0360009860543 0)
(-0.219588520745 0.038056684277 0)
(-0.214516823254 0.0401728819878 0)
(-0.209227554728 0.0423629679514 0)
(-0.203705836613 0.0446365409135 0)
(-0.197934656311 0.0469983837113 0)
(-0.191896074715 0.0494475889789 0)
(-0.185572767991 0.0519768840328 0)
(-0.17894973771 0.0545724602092 0)
(-0.172016137446 0.0572141816541 0)
(-0.164767229504 0.0598762800694 0)
(-0.157205609556 0.0625293291357 0)
(-0.149343553099 0.0651407312028 0)
(-0.141201997359 0.0676803540105 0)
(-0.132814027173 0.0701180148775 0)
(-0.124220091723 0.072434340438 0)
(-0.115471898061 0.0746152727869 0)
(-0.106630170739 0.0766598038677 0)
(-0.0977536721064 0.0785906060692 0)
(-0.0889188559764 0.0804328428858 0)
(-0.0801894477206 0.0822442226695 0)
(-0.0716336478631 0.0841158702039 0)
(-0.0633178063075 0.0861428854829 0)
(-0.0552738201612 0.0884463110467 0)
(-0.0475532814315 0.0911847360376 0)
(-0.0401516759475 0.0945213114078 0)
(-0.0329915874009 0.0986166843575 0)
(-0.0263412913098 0.103559030317 0)
(-0.0188261576625 0.109317336105 0)
(-0.0131928626276 0.114967235248 0)
(-0.00344538390464 0.114823870968 0)
(-0.0155424256736 -0.115590825391 0)
(-0.034891577518 -0.133010160592 0)
(-0.0573696385261 -0.144357226307 0)
(-0.0762538175111 -0.152155955005 0)
(-0.0933973003171 -0.156189911688 0)
(-0.108600579782 -0.156895548757 0)
(-0.122181341663 -0.154785213764 0)
(-0.134378335851 -0.150471793167 0)
(-0.145419802846 -0.144546420984 0)
(-0.155502272261 -0.13753112117 0)
(-0.164787766408 -0.129858266717 0)
(-0.173402105039 -0.121864089185 0)
(-0.181438349039 -0.113796047504 0)
(-0.188961950877 -0.105826544067 0)
(-0.1960171183 -0.0980688234324 0)
(-0.202632814798 -0.0905918539356 0)
(-0.208827730421 -0.0834327267651 0)
(-0.214613931285 -0.0766062400641 0)
(-0.219999281085 -0.0701119821019 0)
(-0.224988908296 -0.0639394567117 0)
(-0.229586033633 -0.0580717840712 0)
(-0.233792415501 -0.052488394215 0)
(-0.237608620344 -0.0471670137493 0)
(-0.241034240636 -0.042085135881 0)
(-0.244068125507 -0.0372210887658 0)
(-0.246708612641 -0.0325548120289 0)
(-0.248953857516 -0.0280683911917 0)
(-0.25080221901 -0.0237464086233 0)
(-0.252252394816 -0.0195760353178 0)
(-0.253303632355 -0.0155470056307 0)
(-0.253957052505 -0.0116513836088 0)
(-0.254216717234 -0.00788277424367 0)
(-0.254086766577 -0.00423663816463 1.01185397938e-28)
(-0.253564562018 -0.000714232144166 -1.027821383e-28)
(-0.25264179478 0.00267477478883 0)
(-0.251382619129 0.00592705573018 0)
(-0.24975981869 0.00905208558325 0)
(-0.24779535663 0.0120502973614 0)
(-0.245503955764 0.0149239298337 0)
(-0.24290302744 0.0176765546224 0)
(-0.240011213726 0.0203134478905 0)
(-0.236847798865 0.0228418767734 0)
(-0.233432120233 0.0252713336377 0)
(-0.229782964475 0.0276136965394 0)
(-0.225917929693 0.0298832978252 0)
(-0.221852753455 0.0320968774177 0)
(-0.217600618849 0.0342733917443 0)
(-0.213171467034 0.0364336466495 0)
(-0.208571358525 0.0385997267992 0)
(-0.203801939991 0.0407942033391 0)
(-0.19886009774 0.0430391068457 0)
(-0.193737877391 0.045354700419 0)
(-0.188422720802 0.0477581238747 0)
(-0.182898111325 0.0502619303378 0)
(-0.177144635866 0.0528726993952 0)
(-0.171141368818 0.05558988109 0)
(-0.164867821756 0.058404671111 0)
(-0.158306066373 0.0612997838865 0)
(-0.15144286353 0.0642496928119 0)
(-0.144272755797 0.0672206877715 0)
(-0.13679808293 0.0701752966877 0)
(-0.129035171149 0.0730684617339 0)
(-0.121007452663 0.0758620327734 0)
(-0.112758736485 0.078510536102 0)
(-0.104335325146 0.0809875174692 0)
(-0.0958035627248 0.0832679360523 0)
(-0.0872415062403 0.085338665217 0)
(-0.0787126123365 0.0872251749319 0)
(-0.0703340843161 0.0889428538328 0)
(-0.0621697905136 0.0905474550773 0)
(-0.0543125426604 0.0921411524866 0)
(-0.0468767016428 0.093831249334 0)
(-0.0398835372133 0.095744485669 0)
(-0.0334270727938 0.0980619333448 0)
(-0.0275219563597 0.100979877237 0)
(-0.0220553831187 0.104685504844 0)
(-0.0174973839063 0.109371314128 0)
(-0.0120265034895 0.114999724932 0)
(-0.00935682890754 0.121073095312 0)
(-0.00179873209866 0.122050244852 0)
(-0.0140506785557 -0.138728126248 0)
(-0.0324065092061 -0.154790893248 0)
(-0.0536593631877 -0.164126791359 0)
(-0.0713883856553 -0.169835356801 0)
(-0.087569662456 -0.171908353153 0)
(-0.101867524004 -0.170868025096 0)
(-0.114612188366 -0.167258444412 0)
(-0.126022012062 -0.161688447482 0)
(-0.136324416657 -0.154723582534 0)
(-0.145715257118 -0.146852249913 0)
(-0.154355437229 -0.138469184809 0)
(-0.162368871196 -0.129874599266 0)
(-0.16984639438 -0.121284778468 0)
(-0.176851766479 -0.11284744342 0)
(-0.183428393334 -0.10465770918 0)
(-0.189605240558 -0.0967720192168 0)
(-0.195401392583 -0.0892191695565 0)
(-0.200829188503 -0.0820085384714 0)
(-0.205896194895 -0.0751360794812 0)
(-0.210606376814 -0.0685886938804 0)
(-0.214960811919 -0.0623474819663 0)
(-0.218958137874 -0.0563902171984 0)
(-0.222594995801 -0.0506932546781 0)
(-0.225866432762 -0.045232996788 0)
(-0.228766368301 -0.039987018437 0)
(-0.2312880662 -0.0349348788369 0)
(-0.233424643146 -0.0300586609628 0)
(-0.235169956724 -0.0253432645759 0)
(-0.236517507367 -0.020776527865 0)
(-0.237463016593 -0.0163492598461 0)
(-0.23800460524 -0.0120546875641 0)
(-0.238143778364 -0.00788812646637 0)
(-0.237879707924 -0.00384755201034 0)
(-0.237200106605 6.34668983168e-05 0)
(-0.236139660622 0.00383158126235 0)
(-0.234693762684 0.00745330617646 0)
(-0.232870283411 0.0109356760289 0)
(-0.230686920285 0.014275808208 0)
(-0.228161590033 0.0174736066734 0)
(-0.225314173247 0.0205309830247 0)
(-0.222166066722 0.0234521348518 0)
(-0.218739671209 0.0262438306352 0)
(-0.215057815234 0.0289156730256 0)
(-0.211143115806 0.0314803045603 0)
(-0.207017267967 0.0339535272346 0)
(-0.202700257033 0.0363543003242 0)
(-0.198209503049 0.0387045734709 0)
(-0.193558968682 0.0410289033758 0)
(-0.188758285818 0.0433538073435 0)
(-0.183811966024 0.045706831624 0)
(-0.178718815525 0.0481152816709 0)
(-0.173471700209 0.0506046491204 0)
(-0.16805767194 0.0531969024726 0)
(-0.162458636431 0.0559085247188 0)
(-0.156652654257 0.0587486001446 0)
(-0.150615361831 0.0617174998028 0)
(-0.144322519385 0.0648048663142 0)
(-0.13775282433 0.0679893814429 0)
(-0.130889551805 0.0712397528536 0)
(-0.12372733233 0.0745114844742 0)
(-0.116265612556 0.0777597122566 0)
(-0.108528920006 0.0809204392918 0)
(-0.100536999202 0.0839502295438 0)
(-0.0923532594193 0.0867800036981 0)
(-0.0840213463724 0.0893770331613 0)
(-0.0756284937251 0.0917029924835 0)
(-0.0672773949191 0.0937274306954 0)