/*--------------------------------*- C++ -*----------------------------------*\
| =========                 |                                                 |
| \\      /  F ield         | OpenFOAM: The Open Source CFD Toolbox           |
|  \\    /   O peration     | Version:  v1806                                 |
|   \\  /    A nd           | Web:      www.OpenFOAM.com                      |
|    \\/     M anipulation  |                                                 |
\*---------------------------------------------------------------------------*/
FoamFile
{
    version     2.0;
    format      ascii;
    class       volVectorField;
    location    "200";
    object      U;
}
// * * * * * * * * * * * * * * * * * * * * * * * * * * * * * * * * * * * * * //

dimensions      [0 1 -1 0 0 0 0];


internalField   nonuniform List<vector> 
6400
(
(0.005011093065 0.0125249536727 0)
(0.0122253630257 0.00778745417663 0)
(0.00699946581484 -0.00609402451364 0)
(-0.0244587053713 -0.0155056272681 0)
(-0.0497005068239 -0.0159669426677 0)
(-0.0763867731189 -0.0156785373275 0)
(-0.102887759863 -0.0150562958235 0)
(-0.128539030966 -0.0141992527462 0)
(-0.152873019273 -0.0131953849946 0)
(-0.17558351217 -0.0121135899362 0)
(-0.196490339687 -0.0110070209988 0)
(-0.215513610683 -0.0099157126386 0)
(-0.232651464108 -0.00886880628281 0)
(-0.247960683111 -0.00788643360778 0)
(-0.261539987705 -0.006981382416 0)
(-0.273515943713 -0.0061605538006 0)
(-0.284031381034 -0.00542625182631 0)
(-0.293236147972 -0.00477728527725 0)
(-0.301279972848 -0.00420991707995 0)
(-0.308307177431 -0.00371864629947 0)
(-0.314452969598 -0.00329685979977 0)
(-0.319841050497 -0.00293734266688 0)
(-0.324582277782 -0.00263268260558 0)
(-0.328774149165 -0.00237556021788 0)
(-0.332500890424 -0.00215895937936 0)
(-0.335833962774 -0.0019762954698 0)
(-0.338832840978 -0.00182148794465 0)
(-0.341545927152 -0.00168897913668 0)
(-0.344011532521 -0.001573729849 0)
(-0.3462588266 -0.00147118039369 0)
(-0.348308706327 -0.00137717899209 0)
(-0.350174552648 -0.00128789493737 0)
(-0.351862879003 -0.00119973114048 0)
(-0.353373853952 -0.00110918391475 0)
(-0.354701308835 -0.00101257588288 0)
(-0.355832525748 -0.00090568728617 0)
(-0.356747828976 -0.00078360069126 0)
(-0.357420508227 -0.000641247869401 0)
(-0.357817119489 -0.000474679327619 0)
(-0.357898744185 -0.000281350863131 0)
(-0.357620744011 -5.85127561399e-05 0)
(-0.356929656638 0.000196189112888 0)
(-0.355769414955 0.000485686942392 0)
(-0.354076353466 0.000813814521533 0)
(-0.35177958141 0.00118472739607 0)
(-0.348800722268 0.00160266821049 0)
(-0.345053998769 0.00207173558677 0)
(-0.340446746016 0.0025955410671 0)
(-0.334880527375 0.00317681106246 0)
(-0.328253105472 0.00381689492676 0)
(-0.320461616012 0.00451522177894 0)
(-0.311407016843 0.00526855979628 0)
(-0.301000561237 0.0060699045598 0)
(-0.289170451558 0.00690795065986 0)
(-0.275869240805 0.00776666584459 0)
(-0.261082212433 0.00862587317207 0)
(-0.244836761871 0.00946209855191 0)
(-0.227212025015 0.0102459529113 0)
(-0.208338604414 0.0109442845711 0)
(-0.188406827164 0.0115209725321 0)
(-0.167661466094 0.0119432392958 0)
(-0.146406540697 0.0121899006214 0)
(-0.125011183651 0.0122309528399 0)
(-0.103890887329 0.0120374799492 0)
(-0.0834831851214 0.0115641982589 0)
(-0.064091175777 0.0107733781351 0)
(-0.04612981547 0.0097433010672 0)
(-0.0302233329542 0.00859450356077 0)
(-0.0171109291202 0.00754874238133 0)
(-0.00686723663898 0.00651498267251 0)
(0.00285605267828 0.00455091983235 0)
(0.00816843410351 0.0026893829306 0)
(0.011696073209 0.00113976684823 0)
(0.0130015378605 -5.35688527285e-05 0)
(0.0125636836141 -0.000910004337564 0)
(0.0105991441571 -0.00151583656506 0)
(0.00753128709666 -0.00183429054325 0)
(0.00397298292646 -0.00170096294827 0)
(0.000615837464124 -0.000654606549 0)
(-0.000447038501108 0.000704249729238 0)
(-0.00401014046055 0.012511395815 0)
(-0.0233087877745 -0.0180325697697 0)
(-0.0419787596355 -0.0297389549468 0)
(-0.0673524993619 -0.036716927108 0)
(-0.093074902816 -0.0391257268085 0)
(-0.119928153013 -0.0395965770448 0)
(-0.146494319094 -0.0388353839844 0)
(-0.172060348108 -0.0372171212345 0)
(-0.196133039142 -0.0350147100447 0)
(-0.218408086125 -0.0324419385907 0)
(-0.238718807662 -0.0296697516894 0)
(-0.257004037519 -0.0268332255233 0)
(-0.273282331138 -0.0240361496837 0)
(-0.287630564613 -0.0213550439615 0)
(-0.300166079755 -0.0188430730232 0)
(-0.311031992377 -0.0165338912026 0)
(-0.32038536523 -0.0144453013209 0)
(-0.328387943732 -0.0125826323094 0)
(-0.335199142374 -0.0109417523805 0)
(-0.340970957931 -0.00951168752103 0)
(-0.34584450718 -0.00827682824249 0)
(-0.349947894575 -0.0072187385827 0)
(-0.353395133035 -0.00631758522451 0)
(-0.356285870515 -0.00555322005013 0)
(-0.358705679096 -0.00490596322039 0)
(-0.360726797649 -0.00435712149903 0)
(-0.362409024332 -0.0038892914469 0)
(-0.363800794685 -0.00348651750064 0)
(-0.364940259786 -0.00313432301478 0)
(-0.365856335115 -0.00281963204914 0)
(-0.366569624027 -0.0025305985627 0)
(-0.367093043877 -0.00225645878799 0)
(-0.367433156983 -0.00198734123276 0)
(-0.367590267906 -0.0017138346379 0)
(-0.367559020819 -0.00142636875565 0)
(-0.367327883934 -0.00111437581236 0)
(-0.366877945615 -0.000766640170581 0)
(-0.366181383406 -0.000375440060847 0)
(-0.365218516565 6.32402391408e-05 0)
(-0.363970630627 0.000556872259597 0)
(-0.36240118478 0.00111660471216 0)
(-0.360471003604 0.00175308846662 0)
(-0.358128363416 0.00247645122092 0)
(-0.355314419038 0.00329738545516 0)
(-0.35196263782 0.0042268612624 0)
(-0.347998899031 0.00527583240155 0)
(-0.343341535938 0.00645477045386 0)
(-0.337901650685 0.00777291326498 0)
(-0.3315840016 0.00923720572117 0)
(-0.324288723991 0.0108509180614 0)
(-0.315914345367 0.0126118818568 0)
(-0.306362270658 0.0145103727274 0)
(-0.295542376632 0.0165271127876 0)
(-0.28337989417 0.0186314362579 0)
(-0.269823747615 0.0207805918592 0)
(-0.254855972352 0.022920267292 0)
(-0.238500807567 0.0249841675945 0)
(-0.220829262401 0.0268962919774 0)
(-0.201967070359 0.0285719949012 0)
(-0.182095086655 0.0299245382827 0)
(-0.16145358382 0.0308760975371 0)
(-0.140347301308 0.031349689807 0)
(-0.11913685656 0.0312887845345 0)
(-0.0982270773477 0.030627763729 0)
(-0.0779373866586 0.0292861148114 0)
(-0.0586535581264 0.0272553049759 0)
(-0.040881351768 0.0245970402139 0)
(-0.0252693832789 0.0216843953405 0)
(-0.0121907374948 0.0187772357874 0)
(-0.000542128947375 0.0152624888917 0)
(0.00800257547065 0.0113050922228 0)
(0.0138878233566 0.00741151797908 0)
(0.0176662229558 0.00385782857727 0)
(0.0193332445818 0.00076137961705 0)
(0.019162374266 -0.00183546545765 0)
(0.0172999656556 -0.00385955237664 0)
(0.0140849867877 -0.00516032573916 0)
(0.00999482340293 -0.00551265318259 0)
(0.00556096308223 -0.00449572769633 0)
(0.00175166538831 -0.00151315094508 0)
(-0.0250145125004 -0.0180017538637 0)
(-0.0405049132988 -0.0393734355698 0)
(-0.0646842182139 -0.053535661116 -5.5946950188e-29)
(-0.0897043015563 -0.0621298981244 4.39605239189e-29)
(-0.114705703361 -0.0656367100498 3.66979410666e-29)
(-0.139717207333 -0.0660949669914 -3.2298728745e-29)
(-0.163885610149 -0.0644847922656 2.85002320825e-29)
(-0.186714863813 -0.0614536780108 -2.62737813435e-29)
(-0.207851627817 -0.0574786705626 0)
(-0.227098643726 -0.0529293582545 0)
(-0.244376917826 -0.0480956738756 0)
(-0.259696831776 -0.0432021867768 0)
(-0.273133028474 -0.0384179021718 0)
(-0.284803676181 -0.0338645548058 0)
(-0.294853767111 -0.029624262331 0)
(-0.303442059432 -0.0257466838902 0)
(-0.310731185845 -0.0222555681049 0)
(-0.316880436189 -0.0191546165167 0)
(-0.322040719775 -0.0164325877446 0)
(-0.326351294524 -0.0140676571459 0)
(-0.329937878166 -0.0120310349271 0)
(-0.332911828973 -0.0102899000627 0)
(-0.335370111602 -0.00880968316722 0)
(-0.337395786675 -0.00755578310206 0)
(-0.339058953984 -0.00649477007243 0)
(-0.340417734815 -0.00559516686699 0)
(-0.341519468897 -0.00482788766931 0)
(-0.342401838232 -0.00416643121229 0)
(-0.343093969626 -0.00358686908699 0)
(-0.343617386227 -0.00306764601193 -1.24142723077e-28)
(-0.343986489861 -0.00258936839382 1.24173044681e-28)
(-0.344210349278 -0.002134553333 0)
(-0.344292140551 -0.00168723950757 0)
(-0.34423065121 -0.00123245536199 0)
(-0.34402049403 -0.00075528956227 0)
(-0.343650707695 -0.000240209307999 0)
(-0.343099077506 0.000326714067736 0)
(-0.342365149674 0.000953262075754 0)
(-0.341430738238 0.00164986032828 0)
(-0.340250143771 0.00243522416345 0)
(-0.338787118295 0.00332784190203 0)
(-0.33699687595 0.00434563531235 0)
(-0.33482912464 0.00550678258376 0)
(-0.332227045524 0.00682951395028 0)
(-0.329126749867 0.00833228315364 0)
(-0.325456910978 0.0100335211279 0)
(-0.321138458031 0.0119509801534 0)
(-0.316084502093 0.0141006216958 0)
(-0.310200726593 0.0164948881791 0)
(-0.303386922365 0.019140170386 0)
(-0.295539615202 0.022033656077 0)
(-0.286556155421 0.0251597141794 0)
(-0.276340415947 0.0284863792993 0)
(-0.26481055152 0.0319626408045 0)
(-0.251908620248 0.0355166740309 0)
(-0.237609752772 0.039055253032 0)
(-0.221931487928 0.0424649915765 0)
(-0.204940617354 0.0456154415892 0)
(-0.186757607569 0.0483655833484 0)
(-0.167561153981 0.0505742164602 0)
(-0.147594098937 0.0520999252599 0)
(-0.127168275657 0.0528114171054 0)
(-0.106650831987 0.0525967845588 0)
(-0.0863677003904 0.0513516322215 0)
(-0.0666890497668 0.0490230845185 0)
(-0.0480645052661 0.0455971745209 0)
(-0.0311215294637 0.0413388466729 0)
(-0.0163476246318 0.0365183926648 0)
(-0.00335932818919 0.0308635288674 0)
(0.00745226977001 0.0243548885893 0)
(0.0150772804163 0.018140019791 0)
(0.0205997447821 0.0120655255488 0)
(0.0239199219318 0.00640318894786 0)
(0.0250912510781 0.00133588272492 0)
(0.0245699649861 -0.00306579198422 0)
(0.0223661789029 -0.00661272151707 0)
(0.0187265080157 -0.00907746266817 0)
(0.0139983350022 -0.0101833332773 0)
(0.0085167995383 -0.00955950941958 0)
(0.00318202919094 -0.00630143410659 0)
(-0.0243839620356 -0.0432960915687 0)
(-0.0459154472286 -0.0650280470968 0)
(-0.0732173671348 -0.0787924038263 0)
(-0.0983718094994 -0.0869836455576 0)
(-0.122419849203 -0.0900609837866 0)
(-0.145358068462 -0.0896035510617 0)
(-0.166849877824 -0.0866214734989 0)
(-0.186686526353 -0.0819000403101 0)
(-0.204718086608 -0.0760525993566 0)
(-0.220887611632 -0.069562785887 0)
(-0.235213104578 -0.0628082398392 0)
(-0.247769415577 -0.0560767057665 0)
(-0.258670075862 -0.0495793587737 0)
(-0.268052139094 -0.0434630434837 0)
(-0.276064422486 -0.0378217485063 0)
(-0.282858825099 -0.0327071472786 0)
(-0.288584127121 -0.0281379948435 0)
(-0.293381678171 -0.024108274569 0)
(-0.29738251005 -0.0205941015147 0)
(-0.30070554926 -0.0175594522929 0)
(-0.303456700683 -0.0149608156715 0)
(-0.30572862874 -0.0127508626672 0)
(-0.307601046398 -0.0108812363391 0)
(-0.30914147049 -0.00930457458551 0)
(-0.310406093633 -0.00797586896199 0)
(-0.311440888881 -0.00685328140906 0)
(-0.31228269333 -0.00589856339705 0)
(-0.312960268042 -0.00507713575634 0)
(-0.313495285646 -0.00435791594737 0)
(-0.313902824192 -0.0037130310784 0)
(-0.314193184905 -0.00311749399355 0)
(-0.31437102564 -0.00254876077433 0)
(-0.314437022978 -0.00198620835234 0)
(-0.314388515193 -0.00141054434882 0)
(-0.314219889983 -0.00080314787563 0)
(-0.313918620792 -0.000145919661796 0)
(-0.313468655089 0.00057604332997 0)
(-0.312877852477 0.00137885580094 0)
(-0.312097896193 0.00228631295458 0)
(-0.311102629488 0.00332089577925 0)
(-0.309856300883 0.00450351010065 0)
(-0.308317730866 0.0058570281556 0)
(-0.30643982536 0.00740552255962 0)
(-0.304169129134 0.00917398529557 0)
(-0.301445373877 0.0111881661768 0)
(-0.298200936722 0.0134742221732 1.44114209961e-28)
(-0.294360179684 0.016057993527 -1.44694137597e-28)
(-0.289838814004 0.0189635880893 0)
(-0.284543798744 0.0222108960468 0)
(-0.278373989851 0.0258119934243 0)
(-0.271222177548 0.0297663927442 0)
(-0.262979013142 0.0340557656381 0)
(-0.253539279668 0.0386387758858 0)
(-0.242810707791 0.0434464298338 0)
(-0.230723598753 0.0483791787329 0)
(-0.217242745231 0.053305846984 0)
(-0.202376511159 0.0580660406026 0)
(-0.186184440669 0.06247719997 2.17265471466e-28)
(-0.168784474785 0.066341690108 -2.29660961895e-28)
(-0.150358207721 0.0694585617832 0)
(-0.131153261646 0.0716299459673 0)
(-0.111478448415 0.0726483775761 0)
(-0.0916557205383 0.0723502528868 0)
(-0.072048254777 0.0706356290217 0)
(-0.0530959578612 0.067452128797 0)
(-0.0353252152044 0.0629237836727 0)
(-0.0193004265823 0.0572302548942 0)
(-0.00499061987991 0.050202118162 0)
(0.0075961611138 0.0416798672136 0)
(0.0169442184778 0.033229890029 0)
(0.0242240239511 0.0246092193709 0)
(0.0291932326282 0.0162437837568 0)
(0.0318607859622 0.00838637667596 0)
(0.0322398159361 0.00133257645527 0)
(0.0309739663196 -0.00486534312613 0)
(0.0279455693137 -0.00996223960494 0)
(0.0234017493091 -0.0137267809887 0)
(0.0176399894175 -0.0158692059302 0)
(0.0108700162054 -0.0160437613962 0)
(0.00417281175625 -0.0128694466181 0)
(-0.0224866335481 -0.074532926438 0)
(-0.0459509065793 -0.0934264176927 0)
(-0.0741897307942 -0.104811117168 0)
(-0.0987439577145 -0.111122316677 0)
(-0.12148431848 -0.112649033459 0)
(-0.142373181673 -0.110605489944 0)
(-0.161398694059 -0.105919952615 0)
(-0.178561691497 -0.099405804273 0)
(-0.193877589738 -0.0917357105555 0)
(-0.207403089739 -0.083452906835 0)
(-0.219228865258 -0.0749824863523 0)
(-0.229471121007 -0.0666450734651 0)
(-0.238262119318 -0.0586717836122 0)
(-0.24574244682 -0.0512193627889 0)
(-0.252055182396 -0.0443844600542 0)
(-0.257341537878 -0.0382163457678 0)
(-0.261737461656 -0.0327278177955 0)
(-0.265370884428 -0.0279043696314 0)
(-0.268359536279 -0.0237118374417 0)
(-0.270809375038 -0.0201027555861 0)
(-0.272813695098 -0.0170215771414 0)
(-0.274452910124 -0.0144088638938 0)
(-0.275794915448 -0.012204516342 0)
(-0.276895937799 -0.0103501249119 0)
(-0.27780159682 -0.00879054767314 0)
(-0.278548150021 -0.00747484506345 0)
(-0.279163695975 -0.00635670425669 0)
(-0.279669326543 -0.00539446179542 0)
(-0.280080103962 -0.00455087478126 0)
(-0.28040576757 -0.00379277846447 0)
(-0.280651669058 -0.00309058883427 -1.51206244402e-28)
(-0.280819168253 -0.00241772243077 1.51461764226e-28)
(-0.280906315803 -0.00175004287614 0)
(-0.280908754304 -0.00106550411092 0)
(-0.280819650752 -0.000343903417134 0)
(-0.28062405497 0.00043343519759 0)
(-0.280328182128 0.00128625193231 0)
(-0.279897334439 0.00224287606655 0)
(-0.279309414521 0.00333198604725 0)
(-0.278537370327 0.00457887351234 0)
(-0.277548157826 0.00601062145034 0)
(-0.276303362864 0.00765593761115 0)
(-0.274758915042 0.00954495686318 0)
(-0.272864830803 0.011709110228 0)
(-0.270564827078 0.0141810689716 0)
(-0.267795643426 0.0169945961231 0)
(-0.264485971116 0.0201839329024 0)
(-0.26055513749 0.023782179847 0)
(-0.255911873902 0.027818224733 0)
(-0.250453908951 0.0323120001948 0)
(-0.244069372886 0.0372681477082 0)
(-0.236640477402 0.0426685267861 0)
(-0.228050513362 0.0484643856177 0)
(-0.218193045344 0.05456960429 0)
(-0.206984294187 0.0608553941694 0)
(-0.194375149966 0.0671507519582 0)
(-0.180363600755 0.073246061286 0)
(-0.165002893692 0.0789040571308 0)
(-0.148416300774 0.0838642378468 0)
(-0.130796184752 0.08787070238 0)
(-0.112370395296 0.0906632441332 0)
(-0.0934386234935 0.0919484560187 0)
(-0.0743255381151 0.0915395017732 0)
(-0.0554671861711 0.0893260871559 0)
(-0.0374196802647 0.0853878223172 0)
(-0.0205823401968 0.0797429243287 0)
(-0.00516633757248 0.0721758660377 0)
(0.00874341000939 0.0625038387394 0)
(0.0197047376897 0.0523042587765 0)
(0.0287023407778 0.041435308714 0)
(0.0353744348007 0.0304575482125 0)
(0.0396577946212 0.0197528738975 0)
(0.0415207934839 0.00964562560829 0)
(0.0410187255005 0.000529515737799 0)
(0.0387493139577 -0.00757898653168 0)
(0.0345767802773 -0.0143421856463 0)
(0.0287710503705 -0.0195271358972 0)
(0.0216377641079 -0.0228519501635 0)
(0.0133101912917 -0.0239984015814 0)
(0.00515357777642 -0.0210885280502 0)
(-0.0204299188385 -0.106127988238 0)
(-0.0437230289119 -0.121922841704 0)
(-0.0712159191705 -0.130389521524 0)
(-0.0943916979883 -0.134175513508 0)
(-0.115504087099 -0.133518910916 0)
(-0.134380191666 -0.129443673085 0)
(-0.151181412504 -0.122806738188 0)
(-0.166021046008 -0.11441172247 0)
(-0.179014743568 -0.104945500323 0)
(-0.1902884012 -0.0949714819802 0)
(-0.199975357161 -0.0849318028222 0)
(-0.208214255677 -0.0751586289478 0)
(-0.215146615492 -0.065889529118 0)
(-0.220915041601 -0.057283676825 0)
(-0.225661508745 -0.0494368758694 0)
(-0.229525231437 -0.042394576374 0)
(-0.232639987961 -0.0361628764498 0)
(-0.235131160171 -0.0307178814152 0)
(-0.237112979259 -0.026013812776 0)
(-0.23868644812 -0.0219900840313 0)
(-0.239938231603 -0.018577378238 0)
(-0.240940556741 -0.0157026560427 0)
(-0.241751962738 -0.0132930407298 0)
(-0.242418636419 -0.0112785872261 0)
(-0.242976039435 -0.00959405690793 0)
(-0.24345058558 -0.00817987663191 0)
(-0.243861200023 -0.00698242617355 0)
(-0.244220684851 -0.00595389081006 0)
(-0.244536841614 -0.00505188252929 0)
(-0.24481333627 -0.00423891839206 0)
(-0.245050378184 -0.00348171248444 0)
(-0.24524521079 -0.00275034869041 0)
(-0.245392530428 -0.00201770224967 0)
(-0.245485160969 -0.00125925461673 0)
(-0.24551417221 -0.000453303698058 0)
(-0.245465692334 0.000420552259658 0)
(-0.245331591186 0.0013896414069 0)
(-0.245090583523 0.00248599356536 0)
(-0.244720047099 0.00373934274811 0)
(-0.244193725697 0.00517993971347 0)
(-0.243480605509 0.00683993163248 0)
(-0.242544582687 0.00875338617458 0)
(-0.241344263979 0.0109561287457 0)
(-0.23983299604 0.0134856202863 0)
(-0.237958778751 0.0163810630498 0)
(-0.235663625007 0.019683639526 0)
(-0.232882008386 0.0234363043135 0)
(-0.229538450919 0.0276823566002 0)
(-0.225544887715 0.0324621976827 0)
(-0.220798971664 0.0378073394219 0)
(-0.215184051017 0.0437319081836 0)
(-0.208573012103 0.0502220035062 0)
(-0.200835285195 0.057224074698 0)
(-0.19184773212 0.064634600875 0)
(-0.181508940859 0.0722954195496 0)
(-0.169753900146 0.0799927526768 0)
(-0.156573503265 0.0874607174349 0)
(-0.142017440386 0.0944092933242 0)
(-0.126221518262 0.10049987379 0)
(-0.109365945691 0.105421390951 0)
(-0.0916768674257 0.108854112074 0)
(-0.0734745841505 0.110436742751 0)
(-0.0550947457847 0.109977536688 0)
(-0.037076309975 0.10738253057 0)
(-0.0199733080108 0.102678456204 0)
(-0.00376536775564 0.0955007203046 0)
(0.0110717495473 0.0857236287078 0)
(0.0234562964056 0.0745783017386 0)
(0.0340369888265 0.0621220124429 0)
(0.0424130280787 0.0489616858259 0)
(0.0483822919609 0.0355841027186 0)
(0.0518764907841 0.022464430521 0)
(0.0527978859222 0.0100396513724 0)
(0.0514697094559 -0.00132087141587 0)
(0.0479191097991 -0.0114848649194 0)
(0.0423235954339 -0.0200662859537 0)
(0.0349720690107 -0.0268036394227 0)
(0.0261934515746 -0.0314114604427 0)
(0.0160481645074 -0.0335951033375 0)
(0.00623885486657 -0.0310105490795 0)
(-0.0183095519814 -0.135543626585 0)
(-0.040360196318 -0.148845531461 0)
(-0.0661819740156 -0.154504587491 0)
(-0.0875059055692 -0.155624126788 0)
(-0.106790875946 -0.15254793069 0)
(-0.123691557464 -0.146247447636 0)
(-0.138458371196 -0.1375494937 0)
(-0.151245117395 -0.127246542885 0)
(-0.162214095271 -0.116020622291 0)
(-0.171522727428 -0.104433241529 0)
(-0.179323861636 -0.0929251173791 1.72143589722e-28)
(-0.18576725809 -0.0818273328057 -1.75113189544e-28)
(-0.19100158287 -0.0713768101401 0)
(-0.195175866535 -0.061732102296 0)
(-0.198439298419 -0.0529874053493 0)
(-0.200939015101 -0.0451843708003 0)
(-0.202816305462 -0.0383222184604 0)
(-0.204202180515 -0.0323668629437 0)
(-0.205213381549 -0.0272595001952 0)
(-0.205949659421 -0.0229246877085 0)
(-0.206492710033 -0.0192776401646 0)
(-0.206906690773 -0.0162303658414 0)
(-0.207239921377 -0.0136963832824 0)
(-0.207527219553 -0.011593954695 0)
(-0.207792425802 -0.00984799416618 0)
(-0.208050767048 -0.00839092282051 0)
(-0.2083108681 -0.00716272763907 0)
(-0.208576348088 -0.00611054073037 0)
(-0.208847058262 -0.00518799880887 0)
(-0.209120043197 -0.00435446659784 0)
(-0.209390072785 -0.00357410585198 0)
(-0.209649966607 -0.00281486065068 2.01496216659e-28)
(-0.209890755293 -0.00204763613283 -2.01969303088e-28)
(-0.210101760364 -0.00124603100595 0)
(-0.210271539116 -0.000386697640943 0)
(-0.210389858324 0.000552086658666 0)
(-0.210425264906 0.00160070587142 0)
(-0.21037601888 0.00279650482461 0)
(-0.210216971585 0.00417335605744 0)
(-0.209922892257 0.00576556722843 0)
(-0.209463973435 0.00760999036115 0)
(-0.208805447186 0.0097458258118 0)
(-0.207907631535 0.0122141674753 0)
(-0.206726555145 0.0150576617226 0)
(-0.205214601508 0.0183208327357 0)
(-0.203320190119 0.0220510370377 0)
(-0.200985740975 0.0262995085089 0)
(-0.198143939232 0.0311210757062 0)
(-0.194713203269 0.0365705935534 0)
(-0.190593492373 0.0426958191659 0)
(-0.185665058167 0.0495256682229 0)
(-0.179790666765 0.0570549681406 0)
(-0.172824019352 0.0652279365145 0)
(-0.164622333942 0.0739272624375 0)
(-0.155066319124 0.0829606160222 0)
(-0.144074792338 0.0920722774417 0)
(-0.131643752163 0.100928117283 0)
(-0.1178012028 0.109194765919 0)
(-0.102706622043 0.116415487355 0)
(-0.0865275102802 0.122251742075 0)
(-0.069506925944 0.126318151714 0)
(-0.052052038864 0.128217599569 0)
(-0.0344534674465 0.127805216925 0)
(-0.0172369866284 0.124797393234 0)
(-0.000734018987938 0.118883061786 0)
(0.0146046034335 0.110018634986 0)
(0.0281657249028 0.0989353409467 0)
(0.0401380416349 0.0858403632535 0)
(0.0501368442827 0.0712856912709 0)
(0.0578584188531 0.0557863444424 0)
(0.0630801801406 0.0399105726746 0)
(0.0656991995911 0.0242502407401 0)
(0.0655564352016 0.00938892673108 0)
(0.0631330451758 -0.00436820917172 0)
(0.0582072294822 -0.0167498586958 0)
(0.05104369553 -0.0273227928574 0)
(0.0419578139193 -0.0357709437158 0)
(0.0313195505569 -0.0417797305764 0)
(0.0191227043651 -0.0450681322071 0)
(0.00745429813339 -0.0428514546058 0)
(-0.0161826349295 -0.16215993555 0)
(-0.0364471527332 -0.173522126136 0)
(-0.0601543214931 -0.176621629101 0)
(-0.0794098478923 -0.175158929606 0)
(-0.0967868026995 -0.169658067003 0)
(-0.111769204022 -0.161111616105 0)
(-0.124656200878 -0.150348970408 0)
(-0.135597638383 -0.138160264884 0)
(-0.144768169816 -0.125218915819 0)
(-0.152332030285 -0.112077739048 0)
(-0.158447538635 -0.0991709462671 0)
(-0.163270357216 -0.0868268242784 0)
(-0.166957619024 -0.0752827962928 0)
(-0.169670146109 -0.0646992733073 0)
(-0.171571490582 -0.0551709700312 0)
(-0.172823786329 -0.0467362362217 0)
(-0.173581487099 -0.0393856998757 0)
(-0.173984683497 -0.0330713023759 0)
(-0.17415365856 -0.0277160596377 0)
(-0.174185814108 -0.0232241044488 0)
(-0.174155289535 -0.0194901118386 0)
(-0.174114866198 -0.0164072024836 0)
(-0.174099320301 -0.0138727645782 0)
(-0.174129229517 -0.0117921019545 0)
(-0.174214696622 -0.0100802108041 0)
(-0.17435837465 -0.00866217190897 0)
(-0.174557834899 -0.00747267421353 0)
(-0.174807218492 -0.00645508352497 0)
(-0.175098429623 -0.0055602997994 0)
(-0.175421906536 -0.00474563477485 0)
(-0.175767243947 -0.00397362428669 0)
(-0.176123155473 -0.00321088036521 0)
(-0.176477333489 -0.00242701592368 0)
(-0.176815748321 -0.00159377377161 0)
(-0.17712375534 -0.000685055873842 0)
(-0.177393499872 0.000322505205457 0)
(-0.177571442391 0.00145304717756 0)
(-0.177679872407 0.00274691773937 0)
(-0.177689069705 0.00424673626918 0)
(-0.177572944524 0.0059886303357 0)
(-0.177302164489 0.00801389292743 0)
(-0.176841858134 0.0103668039512 0)
(-0.176152148355 0.0130932175063 0)
(-0.175189928237 0.0162395501941 0)
(-0.173911104474 0.0198532493715 2.26513562656e-28)
(-0.172271491817 0.0239854576246 -2.23629048045e-28)
(-0.170224572323 0.0286943754841 0)
(-0.167715905006 0.0340467505863 0)
(-0.164675377342 0.0401151026301 0)
(-0.161009711226 0.0469682284661 0)
(-0.156598005186 0.0546555453762 0)
(-0.151292685906 0.0631876959216 0)
(-0.14493081147 0.0725121991708 0)
(-0.137347950256 0.0824986686475 0)
(-0.128417484857 0.092916689604 0)
(-0.118026641787 0.103475531328 0)
(-0.106201140732 0.113730516157 0)
(-0.0929119911952 0.123346181161 0)
(-0.0783974060381 0.131694545152 0)
(-0.062770106091 0.1384542585 0)
(-0.0463531287726 0.143165501228 0)
(-0.029674808824 0.145396448503 0)
(-0.0127843178275 0.144956269955 0)
(0.00399669497371 0.141113398911 0)
(0.0193145189487 0.13405460438 0)
(0.0337123945589 0.124070885775 0)
(0.0468256009833 0.11142659923 0)
(0.0582816079246 0.0965262277244 0)
(0.0677189480498 0.0798314953287 0)
(0.0748046229649 0.0619036203131 0)
(0.0792739902062 0.0433962537302 0)
(0.0809638273579 0.0250155891957 0)
(0.0796436289706 0.00752322662776 0)
(0.0759779634194 -0.00882988392665 0)
(0.06954704288 -0.0235926864428 0)
(0.0606749816427 -0.0363180638456 0)
(0.0496858049498 -0.046632236906 0)
(0.0370001117665 -0.0541719885678 0)
(0.0225339308281 -0.0586517479782 0)
(0.0087990637919 -0.0568638625447 0)
(-0.0141310867211 -0.185901479123 0)
(-0.0323734691165 -0.195752850234 0)
(-0.0537893408711 -0.196549124839 0)
(-0.0709201718782 -0.192675467799 0)
(-0.0863965384237 -0.184856784697 0)
(-0.0995449928406 -0.174137850911 0)
(-0.110695593476 -0.161369694183 0)
(-0.119969589014 -0.147349160233 0)
(-0.127536110851 -0.132744212068 0)
(-0.1335531539 -0.118100988671 0)
(-0.138178144772 -0.103849997125 0)
(-0.141571479455 -0.090320718334 0)
(-0.143901133278 -0.0777553952102 0)
(-0.145343823002 -0.066319665155 0)
(-0.146081672175 -0.0561100474991 0)
(-0.146294776204 -0.0471601914048 0)
(-0.146151496283 -0.0394481468728 0)
(-0.145799055687 -0.0329060724892 0)
(-0.145356813889 -0.0274323522011 0)
(-0.144913601856 -0.0229048290984 0)
(-0.14452915328 -0.0191932918989 0)
(-0.144238541605 -0.0161695684128 0)
(-0.144058043374 -0.0137143645437 0)
(-0.143990838644 -0.0117208932694 0)
(-0.144031880154 -0.010095956336 0)
(-0.144171274985 -0.00875936940749 0)
(-0.144396547293 -0.00764258569762 0)
(-0.144693960155 -0.00668704227269 0)
(-0.145049232097 -0.00584248006363 0)
(-0.14544876357 -0.00506548652939 0)
(-0.145877054994 -0.00431820122929 0)
(-0.146321157753 -0.00356709530419 0)
(-0.146767085665 -0.00278163375379 2.85967224331e-28)
(-0.147199498662 -0.00193259628458 -2.86641219845e-28)
(-0.147601394591 -0.000991231355554 0)
(-0.14796212641 6.9819628467e-05 0)
(-0.148268847688 0.00127311623175 0)
(-0.148466833268 0.00265571381449 0)
(-0.14857305181 0.00426460138697 0)
(-0.148553018628 0.00614166926727 0)
(-0.148378333223 0.00833415328222 0)
(-0.148011524501 0.0108923778158 0)
(-0.147408518309 0.0138667938966 0)
(-0.146522596124 0.0173057423345 0)
(-0.14531004425 0.0212560118405 0)
(-0.143733930223 0.0257676002904 0)
(-0.141762306069 0.0309016438101 0)
(-0.13935956717 0.0367359271267 0)
(-0.136473810098 0.0433626287538 0)
(-0.133023606208 0.0508788539673 0)
(-0.128890650303 0.0593637740481 0)
(-0.123917389258 0.0688531226773 0)
(-0.117929779614 0.0793006107641 0)
(-0.110735154453 0.0905744713844 0)
(-0.102216070344 0.102379141456 0)
(-0.0921972156674 0.11440537692 0)
(-0.0807949375607 0.126045399629 0)
(-0.0678425975302 0.137033814354 0)
(-0.0537844371935 0.146464728191 0)
(-0.0385946900344 0.154170974837 0)
(-0.0227076908066 0.159518387667 0)
(-0.00669914125534 0.161948442624 0)
(0.00985444397005 0.161037635482 0)
(0.0251273360888 0.156572423694 0)
(0.0399553628396 0.148657056586 0)
(0.05389222809 0.137535150593 0)
(0.0665476984307 0.123434053569 0)
(0.0775313385883 0.106698196462 0)
(0.0864575604371 0.0878017712891 0)
(0.0929598425989 0.0673475425412 0)
(0.0967222091625 0.0460611672206 0)
(0.0974798708029 0.0247652575266 0)
(0.0948988120918 0.00443827805506 0)
(0.0898591701488 -0.0147432475662 0)
(0.0818411839325 -0.0321124111989 0)
(0.0711653689285 -0.047196525379 0)
(0.0581360419488 -0.059562110186 0)
(0.0432303063923 -0.0687883706465 0)
(0.0262847333941 -0.0745734949069 0)
(0.0102792679652 -0.0732938226296 0)
(-0.0122148573109 -0.206817098289 0)
(-0.028385070851 -0.215522631998 0)
(-0.0474921151833 -0.214268463566 0)
(-0.0625428878885 -0.2081897765 0)
(-0.0761875811095 -0.198212259407 0)
(-0.0876124429148 -0.185443498077 0)
(-0.097172573291 -0.170766227992 0)
(-0.10494868888 -0.154991477152 0)
(-0.111097759735 -0.138787832397 0)
(-0.115766383313 -0.122701376517 0)
(-0.119109572869 -0.107166139619 0)
(-0.121293257214 -0.0925202073024 0)
(-0.122498404499 -0.0790171369649 0)
(-0.122919931678 -0.0668321254313 0)
(-0.12275981041 -0.0560645819705 0)
(-0.12221519957 -0.0467407090882 0)
(-0.121464432244 -0.0388196466167 0)
(-0.120654713138 -0.0322050565725 0)
(-0.119894877045 -0.0267614585361 0)
(-0.119254697791 -0.0223325629648 0)
(-0.118769972492 -0.0187581442537 0)
(-0.11845099239 -0.0158867384733 0)
(-0.118291628445 -0.0135830559174 0)
(-0.118276894277 -0.0117306497226 0)
(-0.118388229454 -0.0102313030129 0)
(-0.118606307568 -0.00900273837144 0)
(-0.118912350359 -0.00797587601979 0)
(-0.119288393783 -0.00709226650113 0)
(-0.119717200516 -0.00630201370273 0)
(-0.120182308183 -0.00556216436066 0)
(-0.120667586761 -0.00483545217549 0)
(-0.121158743503 -0.00408901944023 0)
(-0.121641260085 -0.00329293740476 0)
(-0.122100325125 -0.00241850137821 0)
(-0.122519694066 -0.00143616433487 0)
(-0.122887624706 -0.000314151207412 0)
(-0.123210329016 0.000976654338248 0)
(-0.123414133394 0.00246256599556 0)
(-0.123532793058 0.00418857011151 0)
(-0.123528322772 0.00620927955424 0)
(-0.123368361427 0.00857954929209 0)
(-0.123008021872 0.0113581886299 0)
(-0.122391637864 0.0146016755399 0)
(-0.12145988292 0.0183584399467 0)
(-0.120161581607 0.0226681999132 0)
(-0.118463862249 0.0275707978314 0)
(-0.116351709245 0.0331221950699 0)
(-0.113814576248 0.0394082882168 0)
(-0.11082686478 0.04654559894 0)
(-0.107325100562 0.0546687259141 0)
(-0.10320153478 0.0638964011379 0)
(-0.0982878770635 0.074305710107 0)
(-0.0924130550654 0.0858508854637 0)
(-0.0853236559183 0.0984116907135 0)
(-0.0769724653927 0.111574766543 0)
(-0.0670456044691 0.125103033912 0)
(-0.0558624470688 0.138058335244 0)
(-0.0430103694149 0.150418149649 0)
(-0.0293118244149 0.16089159242 0)
(-0.0144469226183 0.169508200018 0)
(0.00106772330593 0.175324318568 0)
(0.0164908217344 0.177616712725 0)
(0.0317284391665 0.176376032549 0)