/*--------------------------------*- C++ -*----------------------------------*\
| =========                 |                                                 |
| \\      /  F ield         | OpenFOAM: The Open Source CFD Toolbox           |
|  \\    /   O peration     | Version:  v1806                                 |
|   \\  /    A nd           | Web:      www.OpenFOAM.com                      |
|    \\/     M anipulation  |                                                 |
\*---------------------------------------------------------------------------*/
FoamFile
{
    version     2.0;
    format      ascii;
    class       volVectorField;
    location    "200";
    object      Ua;
}
// * * * * * * * * * * * * * * * * * * * * * * * * * * * * * * * * * * * * * //

dimensions      [0 1 -1 0 0 0 0];


internalField   nonuniform List<vector> 
6400
(
(-1.29353480066 -0.123507504746 0)
(-1.806219312 0.333050589182 0)
(-2.62710682137 0.11981251563 0)
(-2.62976192552 -1.36528289955 0)
(-2.99715929706 -2.13222758836 0)
(-3.3132322809 -2.93754800529 0)
(-3.55586391678 -3.82156806613 0)
(-3.7486932889 -4.76680258199 0)
(-3.90844621322 -5.75808693339 0)
(-4.04003532349 -6.78519045451 0)
(-4.14487140187 -7.83864025444 0)
(-4.22540941014 -8.90938519452 0)
(-4.28521645569 -9.98968104152 0)
(-4.32797284139 -11.0733410924 0)
(-4.35695688988 -12.1554648529 0)
(-4.37495836898 -13.232100337 0)
(-4.38431215027 -14.2999814014 0)
(-4.3869399816 -15.3563412661 0)
(-4.38439551992 -16.3987819217 0)
(-4.37791646586 -17.425193855 0)
(-4.36847592667 -18.4337182146 0)
(-4.35682957454 -19.4227379841 0)
(-4.34355640617 -20.3908918784 0)
(-4.32909467044 -21.3370979139 0)
(-4.31377135651 -22.2605866166 0)
(-4.29782651446 -23.1609314674 0)
(-4.28143193221 -24.0380820267 0)
(-4.26470627862 -24.8923893031 0)
(-4.24772735963 -25.7246336688 0)
(-4.23054301404 -26.5360498754 0)
(-4.21318145448 -27.3283615155 0)
(-4.19565922567 -28.1038248307 0)
(-4.17800476041 -28.8652929527 0)
(-4.16030603133 -29.6163702862 0)
(-4.14280512562 -30.3617161238 0)
(-4.12591245166 -31.1074285532 0)
(-4.10857160731 -31.8591397181 0)
(-4.08642949551 -32.614562837 0)
(-4.05558677727 -33.3622143022 0)
(-4.01425612721 -34.0760945089 0)
(-3.96388414524 -34.6993804447 0)
(-3.90603921052 -35.217652847 0)
(-3.84181137478 -35.6176341536 0)
(-3.7711275033 -35.8850922712 0)
(-3.69318462825 -36.0038155092 0)
(-3.60713742274 -35.9556894 0)
(-3.51245938161 -35.7213470504 0)
(-3.409010259 -35.2810235574 0)
(-3.29708038797 -34.6156271843 0)
(-3.17755598637 -33.7082498534 0)
(-3.05218734377 -32.5462711761 0)
(-2.92387076302 -31.1240523282 0)
(-2.79684245691 -29.4459949975 0)
(-2.67668838626 -27.52947879 0)
(-2.57007541437 -25.4069931991 0)
(-2.48415309241 -23.1266863967 0)
(-2.4256207223 -20.7506732502 0)
(-2.39963080137 -18.3508997547 0)
(-2.40872785682 -16.0026606084 0)
(-2.45208882499 -13.7768751872 0)
(-2.52552750551 -11.7324266133 0)
(-2.62177692848 -9.9100043421 0)
(-2.73256938897 -8.32968492661 0)
(-2.84858220972 -6.9898907547 0)
(-2.96535371977 -5.87256408143 0)
(-3.0761047364 -4.93779976305 0)
(-3.181595341 -4.12859680818 0)
(-3.26321675794 -3.33383606938 0)
(-3.17249388402 -2.36256024731 0)
(-3.0036520408 -1.10168931719 0)
(-1.27773897044 0.497171620858 0)
(-0.510016345351 0.407466413733 0)
(-0.10590833501 0.0399173554648 0)
(0.0767125412312 -0.140475100436 0)
(0.21813465429 -0.201078131635 0)
(0.295637300033 -0.194194372719 0)
(0.342261095219 -0.152893406958 0)
(0.382069590501 -0.0768214194719 0)
(0.400462863224 0.00795844232458 0)
(0.160099933356 -0.0850614920657 0)
(-2.13517203827 -2.81028252127 0)
(-2.65665827013 -0.734516944195 0)
(-2.4382207372 -0.203388695766 0)
(-2.6005619953 0.0152139776758 0)
(-3.09189546187 0.389506963472 0)
(-3.63360602388 0.85538252538 0)
(-4.14360526821 1.35750834996 0)
(-4.61938820717 1.89747137773 0)
(-5.05869549859 2.47933894425 0)
(-5.4550755586 3.09905166163 0)
(-5.80537266008 3.75048118945 0)
(-6.11074466607 4.42871588863 0)
(-6.37464451128 5.13008396886 0)
(-6.60122716447 5.85156540612 0)
(-6.79466452651 6.59047780715 0)
(-6.95890080704 7.344326735 0)
(-7.09754944176 8.11070967327 0)
(-7.21384604846 8.88723824855 0)
(-7.31064558161 9.67150472498 0)
(-7.39044564617 10.461076417 0)
(-7.45542202205 11.2535245228 0)
(-7.50746557525 12.0464659117 0)
(-7.54821856753 12.8376235748 0)
(-7.57910802829 13.624888604 0)
(-7.60137543742 14.4063886471 0)
(-7.61610139856 15.1805501597 0)
(-7.62422544989 15.9461610631 0)
(-7.6265615967 16.7024237426 0)
(-7.62380986293 17.4490059651 0)
(-7.61656689543 18.186086249 0)
(-7.60533306631 18.9144046324 0)
(-7.59052260366 19.6353079098 0)
(-7.57245061636 20.3507863326 0)
(-7.55134948446 21.0635785979 0)
(-7.5274150838 21.7770515884 0)
(-7.50179195574 22.4954317561 0)
(-7.47932820145 23.2213335618 0)
(-7.46480553517 23.9296940754 0)
(-7.45770174411 24.5961330236 0)
(-7.45267393091 25.2062604039 0)
(-7.44249186195 25.713753855 0)
(-7.4250788055 26.1080561241 0)
(-7.40025601669 26.3758115414 0)
(-7.36758960158 26.5017827927 0)
(-7.32568881151 26.4699244203 0)
(-7.27226717285 26.2641418962 0)
(-7.20422388385 25.8690326484 0)
(-7.11749471067 25.2709988951 0)
(-7.00677813288 24.4598458655 0)
(-6.8653115335 23.4307984705 0)
(-6.68484535861 22.1867481006 0)
(-6.45595612089 20.7404661304 0)
(-6.16885249313 19.1163143997 0)
(-5.81478948755 17.3508810135 0)
(-5.3880682023 15.4920127265 0)
(-4.88836740846 13.5959586664 0)
(-4.32287891879 11.7228705959 0)
(-3.70757228245 9.93108859882 0)
(-3.06695710491 8.27127057834 0)
(-2.43202376846 6.78127987052 0)
(-1.83673072482 5.48249964275 0)
(-1.31343031028 4.37928088391 0)
(-0.889383914348 3.46004857051 0)
(-0.582511520215 2.70169546909 0)
(-0.402860644643 2.07331139898 0)
(-0.348499147172 1.54048192376 0)
(-0.408453819559 1.09276578451 0)
(-0.540873709795 0.780822328112 0)
(-0.565530265234 0.766789691335 0)
(-0.509480122626 0.913492668791 0)
(-0.16499052713 1.15449256516 0)
(-0.0881942111466 0.609032607329 0)
(0.16566925813 0.395559268703 0)
(0.284482851013 0.328297941884 0)
(0.365943836533 0.259288495021 0)
(0.392480979828 0.176529151205 0)
(0.393461700228 0.106351264367 0)
(0.40990526179 0.0539327553569 0)
(0.425439923922 -0.0772818557381 0)
(-0.00057419338725 -0.555784296984 0)
(2.98528146434 -4.83335267513 0)
(-1.07679048348 -0.396644550866 0)
(-0.790278509079 -0.364859006996 1.62798337217e-28)
(-1.04311836266 -0.926670096982 -1.27750110271e-28)
(-1.73039610974 -1.19758792941 -7.79829980384e-29)
(-2.34202196171 -1.32228693232 6.86079360691e-29)
(-2.8271650213 -1.40466932256 -3.17956266216e-29)
(-3.23030069803 -1.47267410612 2.93035151521e-29)
(-3.56614196473 -1.54375302357 0)
(-3.83733674641 -1.63408280155 0)
(-4.04979461625 -1.75449214577 0)
(-4.21216808037 -1.91050866747 0)
(-4.33293314115 -2.10442081308 0)
(-4.4193907735 -2.33678638 0)
(-4.47772492345 -2.6071489379 0)
(-4.51319671205 -2.91437042714 0)
(-4.53027246937 -3.25682083625 0)
(-4.53272411581 -3.63250030176 0)
(-4.52372453952 -4.03911550771 0)
(-4.50593282499 -4.47413947523 0)
(-4.48156445828 -4.93486509403 0)
(-4.45244875719 -5.41846835599 0)
(-4.4200780297 -5.92207451049 0)
(-4.3856509794 -6.44283476773 0)
(-4.3501114172 -6.97800194196 0)
(-4.31418218926 -7.52501278171 0)
(-4.27839469784 -8.08156379218 0)
(-4.24311443665 -8.64568924323 0)
(-4.20856382233 -9.2158310288 0)
(-4.17484061072 -9.79091550719 -1.66191492706e-28)
(-4.14193983466 -10.3704147377 1.66231699793e-28)
(-4.10975571178 -10.9544316241 0)
(-4.07813263221 -11.5437450664 0)
(-4.04666625865 -12.1400088274 0)
(-4.01468860522 -12.7455661541 0)
(-3.97851334699 -13.36416174 0)
(-3.93410707023 -13.9738975322 0)
(-3.88458441437 -14.531835181 0)
(-3.83478130804 -15.0106597459 0)
(-3.78701263829 -15.4036961497 0)
(-3.74238542343 -15.6980892086 0)
(-3.700021046 -15.8778617817 0)
(-3.65925989011 -15.9270793763 0)
(-3.62025266675 -15.8308136961 0)
(-3.58367785915 -15.5754266284 0)
(-3.55056481784 -15.1493557299 0)
(-3.52238897363 -14.5445795844 0)
(-3.50120506575 -13.7584749035 0)
(-3.48960238922 -12.7958063279 0)
(-3.49037466515 -11.6706255174 0)
(-3.50582039605 -10.4077568662 0)
(-3.53660896392 -9.04336441235 0)
(-3.58025587678 -7.62403230891 0)
(-3.62948569603 -6.20395416434 0)
(-3.67105082714 -4.84026714774 0)
(-3.68576741603 -3.58709342439 0)
(-3.65042597654 -2.48936309738 0)
(-3.54176694378 -1.57766010735 0)
(-3.34193438737 -0.865158435317 0)
(-3.04404369882 -0.347201321974 0)
(-2.65627573013 -0.00413032890665 0)
(-2.20278154426 0.193829074043 0)
(-1.7218810917 0.280205489275 0)
(-1.25980789636 0.287534146394 0)
(-0.867062304197 0.241653579747 0)
(-0.588470211182 0.170132403487 0)
(-0.440297344568 0.131689557891 0)
(-0.343659681761 0.332148452412 0)
(0.129021073242 0.880700987252 0)
(0.400332895313 1.38693672043 0)
(0.261982104474 1.27024506849 0)
(0.189109646062 0.67216043062 0)
(0.232157622946 0.419313585263 0)
(0.228484912113 0.257127109207 0)
(0.23361411391 0.144348856828 0)
(0.216699484083 0.0655264802481 0)
(0.188032468401 0.0179631042221 0)
(0.214580010451 0.000809921620664 0)
(0.311134848234 -0.110683401677 0)
(-0.31660175712 -0.737039634602 0)
(6.40120476893 -4.59412696136 0)
(-1.54376661303 -0.534464090893 0)
(-0.746612122128 -1.37082585613 0)
(-1.23974258907 -1.85162718584 0)
(-2.13779348466 -1.81868865051 0)
(-2.76320491209 -1.62650091337 0)
(-3.18412584927 -1.38787774243 0)
(-3.50869815962 -1.13111295192 0)
(-3.76828233607 -0.874000049866 0)
(-3.97256140016 -0.626883155948 0)
(-4.13237371125 -0.392407578755 0)
(-4.25856951139 -0.168823202691 0)
(-4.35955316949 0.0473433339163 0)
(-4.44137162569 0.260036285369 0)
(-4.50850199607 0.473169526803 0)
(-4.5643714245 0.690391024392 0)
(-4.61162186616 0.914944339173 0)
(-4.65228006385 1.1495900191 0)
(-4.68789078134 1.39656657046 0)
(-4.71961856988 1.65757933996 0)
(-4.74832298696 1.93380692767 0)
(-4.77461775089 2.22592660675 0)
(-4.79892165564 2.53415674413 0)
(-4.82150418313 2.85831821993 0)
(-4.84252564283 3.19791047102 0)
(-4.86207116524 3.55220054075 0)
(-4.88017792131 3.9203199336 0)
(-4.89685660593 4.30136723523 0)
(-4.91210550352 4.69451192245 0)
(-4.92592544166 5.09909789253 0)
(-4.9383115861 5.5147462709 0)
(-4.94929573732 5.94146543031 0)
(-4.95884027457 6.37975000766 0)
(-4.96715808601 6.83070660114 0)
(-4.97444055473 7.29633013298 0)
(-4.98312120575 7.77522620039 0)
(-4.98954936394 8.22012115476 0)
(-4.98844919257 8.60998640292 0)
(-4.97813908492 8.93594324989 0)
(-4.96021671346 9.1866770472 0)
(-4.93545945261 9.34909478119 0)
(-4.90226241353 9.41049653625 0)
(-4.85816474847 9.35927124438 0)
(-4.80101473005 9.18549938586 0)
(-4.72893475793 8.88217683679 0)
(-4.63991871814 8.44683050631 7.5412903434e-28)
(-4.53174251218 7.88317467128 -7.57243610973e-28)
(-4.40225916265 7.20260495701 0)
(-4.24993469316 6.42533647826 0)
(-4.0745618115 5.5808162122 0)
(-3.87812402174 4.70690972499 0)
(-3.66563851056 3.84740914996 0)
(-3.44556305086 3.04771089058 0)
(-3.22919270939 2.3490533863 0)
(-3.02857990526 1.78228613617 0)
(-2.85302394613 1.36261775392 0)
(-2.70498058039 1.08676572539 0)
(-2.57699609027 0.933452180776 -2.59654747202e-28)
(-2.45145143491 0.867462179884 2.74351083424e-28)
(-2.30417594443 0.846379141364 0)
(-2.11183154742 0.828459666237 0)
(-1.86044485125 0.779427069867 0)
(-1.55467151196 0.676945060383 0)
(-1.2197864133 0.51115539986 0)
(-0.909899826893 0.288256067241 0)
(-0.686592959425 0.0384626595339 0)
(-0.596868741961 -0.0922879094366 0)
(-0.291561804972 0.214059519749 0)
(0.577077697517 1.08381596239 0)
(0.576142357055 1.48872908604 0)
(0.405453712956 1.1314995873 0)
(0.328690533344 0.642242467729 0)
(0.292825234661 0.415633105593 0)
(0.254183579434 0.25938916131 0)
(0.226191693527 0.142978689571 0)
(0.182561893065 0.0517521027719 0)
(0.126851040319 -0.00913713331925 0)
(0.150950032806 -0.033913256349 0)
(0.316829013431 -0.144213188397 0)
(-0.573110128782 -0.838654322644 0)
(10.0442304242 -4.1999710981 0)
(-3.12478354508 -1.02648271432 0)
(-1.10185221655 -2.36394364402 0)
(-1.62113331188 -2.53396810007 0)
(-2.44856568773 -2.2733312124 0)
(-2.87602757319 -1.97599555112 0)
(-3.10933807569 -1.69023704376 0)
(-3.27899143906 -1.42641409884 0)
(-3.40897643627 -1.19707432713 0)
(-3.50509497411 -1.0064273928 0)
(-3.57556610756 -0.852683202293 0)
(-3.62788268151 -0.732357852929 0)
(-3.66687847168 -0.642101020007 0)
(-3.69540188877 -0.579098901728 0)
(-3.71526403692 -0.541085676885 0)
(-3.72773038989 -0.526305102128 0)
(-3.73373480054 -0.533449769205 0)
(-3.73400925945 -0.56157508721 0)
(-3.72917513662 -0.609997855217 0)
(-3.71979470914 -0.67820308476 0)
(-3.70639192879 -0.765763300393 0)
(-3.68945859072 -0.872275976511 0)
(-3.66945627775 -0.997315028145 0)
(-3.64681780178 -1.14039980738 0)
(-3.62194722348 -1.30097879159 0)
(-3.59521780718 -1.47843060508 0)
(-3.56696759331 -1.67207968002 0)
(-3.53749268239 -1.88122792251 0)
(-3.50704083666 -2.10519930176 0)
(-3.47580043654 -2.34339512839 0)
(-3.44390132824 -2.59536603187 -2.78066793409e-28)
(-3.41138845875 -2.86087035049 2.78541147654e-28)
(-3.37825299148 -3.14001877169 0)
(-3.34432117987 -3.43320618073 0)
(-3.30911778095 -3.74170456895 0)
(-3.27222835868 -4.05414555703 0)
(-3.23789568093 -4.33275503345 0)
(-3.20709210313 -4.56884660678 0)
(-3.17980647526 -4.75050218164 0)
(-3.15709337736 -4.8664419767 0)
(-3.14000272455 -4.90713880996 0)
(-3.1285783774 -4.86390607593 0)
(-3.12228389039 -4.7291109881 0)
(-3.12068547483 -4.49766479046 0)
(-3.12350264205 -4.16875288355 0)
(-3.13020272317 -3.74722229204 0)
(-3.13957821536 -3.24455895739 0)
(-3.14943712767 -2.67936472627 0)
(-3.15631506758 -2.07702395002 0)
(-3.155204082 -1.46815268375 0)
(-3.13950582589 -0.885592395691 0)
(-3.10155593091 -0.360086531402 0)
(-3.03400122011 0.0846724928655 0)
(-2.93196406535 0.436412621357 0)
(-2.79533660098 0.696585285384 0)
(-2.62999866861 0.87941882321 0)
(-2.44672323928 1.0073786446 0)
(-2.25737645662 1.10389081567 0)
(-2.06948251008 1.18542365656 0)
(-1.88180913531 1.25534904877 0)
(-1.68378256283 1.30163365226 0)
(-1.46101428854 1.29944687487 0)
(-1.20612432502 1.21604807608 0)
(-0.93467456683 1.02199464808 0)
(-0.698544278367 0.701986957448 0)
(-0.589174332514 0.314856500183 0)
(-0.525286063242 0.127910654143 0)
(0.206314471214 0.584916276586 0)
(0.769527283407 1.39545669327 0)
(0.550680867371 1.43358251751 0)
(0.443292820568 0.952660729558 0)
(0.371375252783 0.57591517327 0)
(0.3204300835 0.375787199334 0)
(0.274315901594 0.229218320547 0)
(0.233071441088 0.111904197658 0)
(0.176673883918 0.0196238275157 0)
(0.104759415761 -0.0440340907418 0)
(0.128402674758 -0.0694472806575 0)
(0.36030301441 -0.171814092138 0)
(-0.774253353267 -0.893190513406 0)
(14.3558107643 -3.87300183534 0)
(-5.38302896514 -2.00748005345 0)
(-1.22091592349 -3.4817445723 0)
(-1.80476054201 -3.14010793093 0)
(-2.49728307825 -2.63379525709 0)
(-2.73451339635 -2.21278997123 0)
(-2.83845286677 -1.84112809795 0)
(-2.92032028597 -1.51367780849 0)
(-2.98687339397 -1.23507517808 0)
(-3.03934364194 -1.00089346352 0)
(-3.08271068668 -0.803681084223 0)
(-3.12102973632 -0.636490035002 0)
(-3.15615755859 -0.49355314003 0)
(-3.18862731007 -0.37008216606 0)
(-3.21846673877 -0.261991946923 0)
(-3.2455365354 -0.165753571885 0)
(-3.26967618967 -0.0783004216305 0)
(-3.29080907096 0.00307315896505 0)
(-3.30899865754 0.08080032838 0)
(-3.32444504614 0.157097391394 0)
(-3.33744521283 0.233985836199 0)
(-3.34834471445 0.313294245485 0)
(-3.35749752301 0.396650320595 0)
(-3.36523793116 0.48547183169 0)
(-3.37186367047 0.580961664685 0)
(-3.37762644549 0.684112551392 0)
(-3.38272745639 0.795722967063 0)
(-3.3873158923 0.916426315499 0)
(-3.39148985117 1.04673158847 0)
(-3.39529782931 1.18707544787 0)
(-3.39874595559 1.33788796817 0)
(-3.40179197673 1.49966096435 0)
(-3.40439323388 1.67305904122 0)
(-3.40639173435 1.85899077933 0)
(-3.40789706103 2.05885255924 0)
(-3.40777427971 2.26013998322 0)
(-3.40380857926 2.44135529074 0)
(-3.39502625937 2.59501863122 0)
(-3.38070676372 2.71390750203 0)
(-3.36043688902 2.79070718459 0)
(-3.33395987285 2.81810637299 0)
(-3.30077971375 2.79020354623 0)
(-3.260173538 2.70400923625 0)
(-3.21155069279 2.56040086547 0)
(-3.15473302215 2.36476291971 0)
(-3.09002199999 2.12748099288 0)
(-3.01820390569 1.86402785974 0)
(-2.94060102388 1.59420064499 0)
(-2.85908585078 1.34023422515 0)
(-2.77586275299 1.12383411423 0)
(-2.69285120627 0.962544424603 0)
(-2.6106780371 0.866274178317 0)
(-2.52759714541 0.835110659555 0)
(-2.43899755673 0.859496818298 0)
(-2.33820914076 0.923247305325 0)
(-2.21879222282 1.00872354733 0)
(-2.07740145354 1.10227815693 0)
(-1.91546701043 1.19731579153 0)
(-1.73791033344 1.29311711159 0)
(-1.54890708532 1.38884059888 0)
(-1.34745001889 1.4750192969 0)
(-1.12596374153 1.52528981962 0)
(-0.882928506832 1.49355886981 0)
(-0.63772047069 1.3173715876 0)
(-0.475509646271 0.966622946568 0)
(-0.474180563223 0.55151166491 0)
(-0.108663740563 0.49288445741 0)
(0.694007127107 1.09454544211 0)
(0.795935270099 1.61445693365 0)
(0.534389425633 1.2976265997 0)
(0.453359509661 0.808370302817 0)
(0.376812309121 0.502230457616 0)
(0.32606751149 0.317977733477 0)
(0.280927943827 0.178634118867 0)
(0.237959732736 0.0670876760798 0)
(0.177177186287 -0.0243735701518 0)
(0.0953039078835 -0.090049171341 0)
(0.117869151376 -0.116555346071 0)
(0.406900037306 -0.209759679386 0)
(-0.940395395273 -0.927435495863 0)
(19.3209613878 -3.63549645713 0)
(-8.31739343811 -3.25511592383 0)
(-0.88726093981 -4.3909288403 0)
(-1.78849046275 -3.47430450347 0)
(-2.32334762156 -2.81703424389 0)
(-2.41720802747 -2.33144139846 0)
(-2.45220051501 -1.92186911489 0)
(-2.49366033847 -1.57805753331 0)
(-2.53427836671 -1.29746765758 0)
(-2.57357799811 -1.06834148177 0)
(-2.61383725745 -0.880331914771 4.8046846137e-29)
(-2.65650049703 -0.725255024317 -4.88647445537e-29)
(-2.70122420567 -0.596974858033 0)
(-2.74677346873 -0.490886042955 0)
(-2.79167353534 -0.403420097322 0)
(-2.83441579293 -0.331858311086 0)
(-2.87365013897 -0.274197166604 0)
(-2.90837839247 -0.2289643141 0)
(-2.93803015633 -0.195045333536 0)
(-2.96241938747 -0.171567197025 0)
(-2.98164471584 -0.157832475243 0)
(-2.9959863414 -0.153283595012 0)
(-3.00582131062 -0.157481234736 0)
(-3.0115630862 -0.170089469004 0)
(-3.01362266014 -0.190862736902 0)
(-3.01238546953 -0.219633480925 0)
(-3.00819743004 -0.25629748697 0)
(-3.00135439318 -0.300801059432 0)
(-2.99209364268 -0.353130026261 0)
(-2.98058520461 -0.413307187532 0)
(-2.96692668542 -0.481394238092 0)
(-2.95113687813 -0.557511869494 3.43208777761e-28)
(-2.93316421194 -0.641848712431 -3.44034352769e-28)
(-2.9129394134 -0.734761196228 0)
(-2.89046940616 -0.836627611974 0)
(-2.86645103012 -0.93933268744 0)
(-2.84226827167 -1.02760724464 0)
(-2.81844213207 -1.09545098831 0)
(-2.79517007464 -1.13651733283 0)
(-2.77255978345 -1.14475400388 0)
(-2.7506662446 -1.11528539876 0)
(-2.7292864882 -1.04507927377 0)
(-2.70780583437 -0.933504980871 0)
(-2.68525320999 -0.782981088442 0)
(-2.66042583339 -0.59950223205 0)
(-2.63191821609 -0.392606011128 0)
(-2.59806481694 -0.174500659377 0)
(-2.55693260756 0.0416277237975 0)
(-2.50649486676 0.243853030888 0)
(-2.44503430558 0.423814074617 0)
(-2.37167828724 0.578423794336 0)
(-2.28677567868 0.710264404326 0)
(-2.19171335607 0.826206990007 0)
(-2.08797875678 0.934448437758 0)
(-1.97582717857 1.04111221254 0)
(-1.85352779125 1.14813720193 0)
(-1.71803138743 1.25392946434 0)
(-1.56698230788 1.35621185372 0)
(-1.40012250127 1.45542006567 0)
(-1.21858273269 1.55369824711 0)
(-1.02056462509 1.64768284053 0)
(-0.801350871656 1.71524376481 0)
(-0.561606029572 1.69665012093 0)
(-0.355480390542 1.50962175449 0)
(-0.316530095761 1.11148315953 0)
(-0.225969290672 0.754953700699 0)
(0.428222961164 0.918583898453 0)
(0.949687857387 1.50827060299 0)
(0.757935540417 1.62864763995 0)
(0.542474890395 1.12559735642 0)
(0.455820286514 0.694300051444 0)
(0.378518911259 0.433050597914 0)
(0.328544975872 0.262019115499 0)
(0.285194140062 0.128753817487 0)
(0.242711860275 0.02039872891 0)
(0.180389304086 -0.0713945777452 0)
(0.0918483695064 -0.139608531646 0)
(0.113132920687 -0.168408219849 0)
(0.450697561154 -0.253436712233 0)
(-1.07838346695 -0.945823753496 0)
(24.8110174064 -3.54407406255 0)
(-11.8650629077 -4.63688477916 0)
(0.0556892120945 -5.01810060069 0)
(-1.70274109737 -3.6287483615 0)
(-2.04366374315 -2.93181404166 0)
(-2.06215217617 -2.40706803153 0)
(-2.07913438248 -1.97255126298 0)
(-2.11321807911 -1.61944053472 0)
(-2.15407173185 -1.33802490895 0)
(-2.20206443238 -1.10943426259 0)
(-2.25733679761 -0.921714566321 0)
(-2.3202097831 -0.765312025555 0)
(-2.38906423984 -0.633306756639 0)
(-2.4615318848 -0.52059309673 0)
(-2.53496950511 -0.423192507086 0)
(-2.60656414003 -0.338192762565 0)
(-2.67380419598 -0.263596811594 0)
(-2.73491355143 -0.197993257096 0)
(-2.78895964503 -0.140249787027 0)
(-2.83571973508 -0.0893205580431 0)
(-2.87546964899 -0.0441551154562 0)
(-2.9087853008 -0.00367090878074 0)
(-2.93638652752 0.0332382494331 0)
(-2.95902602427 0.0676802061447 0)
(-2.97741875167 0.100735804424 0)
(-2.99220377259 0.13343475359 0)
(-3.00392599534 0.1667361616 0)
(-3.01302763806 0.201521947833 0)
(-3.01984266561 0.238598385173 0)
(-3.02459460151 0.278709871614 0)
(-3.02739482238 0.322561503807 0)
(-3.02824771047 0.370849141855 0)
(-3.0270431126 0.424297647428 0)
(-3.02357754534 0.483687827229 0)
(-3.01735358721 0.549810750907 0)
(-3.00763072362 0.619910392434 0)
(-2.99324987996 0.68374926438 0)
(-2.97337358418 0.738001173372 0)
(-2.94733256073 0.779397647139 0)
(-2.91446770986 0.805209245921 0)
(-2.87420291831 0.813602924776 0)
(-2.82609877174 0.804168470218 0)
(-2.76987860013 0.778587806448 0)
(-2.70551747125 0.741091287037 0)
(-2.63338880101 0.698360379312 2.88538579325e-28)
(-2.55436511597 0.65876240831 -2.84943512254e-28)
(-2.46976201715 0.631045560921 0)
(-2.38107043565 0.622775380319 0)
(-2.28950995905 0.638896850289 0)
(-2.19556210529 0.680852615584 0)
(-2.09873872412 0.746629686408 0)
(-1.99779243932 0.831838730376 0)
(-1.89129336328 0.931467418236 0)
(-1.77816864212 1.04137248875 0)
(-1.65768426726 1.15862798753 0)
(-1.52885410408 1.28039308574 0)
(-1.38984951568 1.40296713298 0)
(-1.23857881891 1.52188991641 0)
(-1.07346086584 1.63513281997 0)
(-0.893132877136 1.74387951731 0)
(-0.693526994489 1.84791372761 0)
(-0.465656253683 1.92386020222 0)
(-0.233416104013 1.89868333126 0)
(-0.115075745753 1.64875551291 0)
(-0.136117874791 1.22544539065 0)
(0.186219490815 1.01873219243 0)
(0.842408254346 1.32804719513 0)
(0.989322378285 1.70667705031 0)
(0.708325815887 1.48188582398 0)
(0.545815989245 0.953431903516 0)
(0.452770218449 0.595345891222 0)
(0.381392700065 0.369075532652 0)
(0.331875095259 0.210097521098 0)
(0.289589982907 0.081174597495 0)
(0.247523013617 -0.0265207529516 0)
(0.184888649524 -0.120113802959 0)
(0.0919233550912 -0.192132717332 0)
(0.112015308686 -0.225245433169 0)
(0.489543776539 -0.304185852597 0)
(-1.19448478823 -0.953354172697 0)
(30.5740187607 -3.58935766783 0)
(-15.9073114349 -5.99841026481 0)
(1.66005645757 -5.3304674939 0)
(-1.73912626831 -3.67853251335 0)
(-1.72563935286 -3.01406348682 0)
(-1.73596374488 -2.45338590388 0)
(-1.75514559467 -2.00790943442 0)
(-1.79315538707 -1.65837431729 0)
(-1.84417277754 -1.38757305556 0)
(-1.90833816608 -1.1692693442 0)
(-1.98363449371 -0.991893279291 0)
(-2.07078198918 -0.844491016483 0)
(-2.16713736306 -0.719650008066 0)
(-2.26944894716 -0.611819405171 0)
(-2.37370583651 -0.516630369801 0)
(-2.47523020772 -0.431374757497 0)
(-2.56992544114 -0.354833322069 0)
(-2.6551275408 -0.286651179585 0)
(-2.72965370362 -0.226774467649 0)
(-2.79344621396 -0.17511597886 0)
(-2.84715830169 -0.13141666599 0)
(-2.89181540469 -0.0952334489857 0)
(-2.92857414251 -0.0659843054408 0)
(-2.95856491332 -0.0430094814404 0)
(-2.98280117643 -0.0256245145057 0)
(-3.00213819964 -0.0131655908506 0)
(-3.01726414422 -0.00502253675497 0)
(-3.02870515241 -0.000663680155196 0)
(-3.03683423306 0.000353109146871 0)
(-3.04187950753 -0.00162065419888 0)
(-3.04392874581 -0.00631540769723 0)
(-3.04292869235 -0.0135325537258 0)
(-3.03867908542 -0.0231427059574 5.41966994446e-28)
(-3.03081697982 -0.0350749889155 -5.43445246117e-28)
(-3.01892166313 -0.0493409511838 0)
(-3.00251482034 -0.0652908245033 0)
(-2.98143156148 -0.0752423652948 0)
(-2.95529883321 -0.0757668989264 0)
(-2.92369275168 -0.0639238561499 0)
(-2.88594273104 -0.0372389384842 0)
(-2.84111610304 0.00581198801747 0)
(-2.78816068082 0.0652585771171 0)
(-2.72605447105 0.139340029928 0)
(-2.65391818574 0.224642360448 0)
(-2.57112754474 0.316696225108 0)
(-2.47747434903 0.410922746809 0)
(-2.37338137574 0.503687921044 0)
(-2.26008055458 0.593168714355 0)
(-2.13959071381 0.679762944284 0)
(-2.01437768626 0.765839938368 0)
(-1.88674774098 0.854843203285 0)
(-1.75822719657 0.95005150786 0)
(-1.62920882845 1.05365400935 0)
(-1.49901786523 1.16646097329 0)
(-1.36618634367 1.28825485513 0)
(-1.22864256743 1.41755004752 0)
(-1.08383979256 1.55148227782 0)
(-0.928961939861 1.68442322236 0)
(-0.761156712808 1.81339427285 0)
(-0.577590571269 1.93777239907 0)
(-0.366923765934 2.0563218782 0)
(-0.121610528532 2.14003395785 0)
(0.0751165468648 2.07271120305 0)
(0.0856303933127 1.75938684821 0)
(0.153954327235 1.38257244094 0)
(0.620081555008 1.33327927753 0)
(1.03870331869 1.62944894018 0)
(0.918985649568 1.69681156854 0)
(0.661171188769 1.27221763733 0)
(0.531954600501 0.803258605497 0)
(0.44240747906 0.508686194728 0)
(0.378930314098 0.311152639915 0)
(0.331063266641 0.161826498879 0)
(0.29014889668 0.035689457636 0)
(0.249607164035 -0.072582709405 0)
(0.188134779515 -0.168924295956 0)
(0.0933257945294 -0.245947189163 0)
(0.113276252158 -0.285961797833 0)
(0.522095194685 -0.362125729655 0)
(-1.29201842925 -0.952882654677 0)
(36.3414974104 -3.75349854066 0)
(-20.269666887 -7.23959875593 0)
(3.89301300697 -5.38562183905 0)
(-2.0691344809 -3.71867392083 0)
(-1.36155021561 -3.09146432413 0)
(-1.46715475189 -2.48769235593 0)
(-1.48390145405 -2.04441792614 0)
(-1.53072397614 -1.70586401249 0)
(-1.59660691632 -1.45111211905 0)
(-1.67895844981 -1.24573567079 0)
(-1.77464420113 -1.08150590463 0)
(-1.88661404297 -0.945057503464 0)
(-2.01079855525 -0.828412815719 0)
(-2.14340263324 -0.724718259261 0)
(-2.27840266029 -0.628306957564 0)
(-2.40822561876 -0.536464369054 0)
(-2.52677377886 -0.449049532758 0)
(-2.630732187 -0.367191001371 0)
(-2.71922441961 -0.292188662007 0)
(-2.79296939017 -0.224925306767 0)
(-2.85353465409 -0.165695298597 0)
(-2.90281833263 -0.114269421988 0)
(-2.94273189996 -0.0700440248109 0)
(-2.97502350099 -0.032176439012 0)
(-3.00118937961 0.000314416278083 0)
(-3.02244375964 0.0284764901759 0)
(-3.03972606783 0.0533660032969 0)
(-3.05372972026 0.0759976703347 0)
(-3.06493983557 0.0973113770957 0)
(-3.07366831822 0.118161139212 0)
(-3.08007661906 0.139327665468 0)
(-3.08418002128 0.161544349607 0)
(-3.08583794467 0.185531179862 0)
(-3.08472901993 0.212046276505 0)
(-3.08024766838 0.241857454368 0)
(-3.07156849718 0.275778464914 0)
(-3.05655927127 0.310618072467 0)
(-3.03338974743 0.344950468604 0)
(-3.0008403427 0.378160305741 0)
(-2.95768884292 0.409959585733 0)
(-2.90253620901 0.440697374076 0)
(-2.83398898007 0.471446495644 0)
(-2.75105438125 0.503861700268 0)
(-2.65348356192 0.539912494928 0)
(-2.54188336287 0.581591332995 0)
(-2.41757907991 0.630606884509 0)
(-2.28239458946 0.68803479777 0)
(-2.13854494006 0.754039618947 0)
(-1.98861665328 0.827960314829 0)
(-1.83545359919 0.908862523882 0)
(-1.68182363389 0.996323920978 0)
(-1.5299386447 1.0908281369 0)
(-1.38099712051 1.19363834826 0)
(-1.23483147657 1.3060632751 0)
(-1.09005507178 1.42925405651 0)
(-0.943894666267 1.56247731463 0)
(-0.792549373812 1.70429578589 0)
(-0.632838563456 1.84928381684 0)
(-0.460984486946 1.99303879825 0)
(-0.268512258169 2.13282419472 0)
(-0.0262268739258 2.26991291488 0)
(0.213735579266 2.33841150966 0)
(0.317920967997 2.20653961767 0)
(0.307920861726 1.8641604206 0)
(0.508117405957 1.58225026928 0)
(0.928724611208 1.62191371881 0)
(1.05492245451 1.76202399472 0)
(0.818978771754 1.55223558405 0)
(0.613095083356 1.06862679282 0)
(0.502357872765 0.679914275334 0)
(0.422371396727 0.432978954101 0)
(0.366042544463 0.256603056127 0)
(0.321410773292 0.114488292196 0)
(0.283098787938 -0.00817881913232 0)
(0.245728206258 -0.117050635383 0)
(0.187388711696 -0.216535931138 0)
(0.0938444476187 -0.299680075393 0)
(0.115669972879 -0.349636537422 0)
(0.547427222481 -0.427493733223 0)
(-1.37216842726 -0.947477768781 0)
(41.86868893 -4.00309235401 0)
(-24.7566327191 -8.30040110288 0)
(6.64630632414 -5.264557437 0)
(-2.80245870663 -3.80009842843 0)
(-0.890857996038 -3.15546238586 0)
(-1.2762765903 -2.51303934471 0)
(-1.2519682673 -2.08640400633 0)
(-1.31457527284 -1.76403100716 0)
(-1.39570486068 -1.53013477184 0)
(-1.49335222928 -1.3402059226 0)
(-1.60590030107 -1.19390893169 0)
(-1.7397979218 -1.07300295459 0)
(-1.88824155027 -0.969098678816 0)
(-2.04758667119 -0.872484238321 0)
(-2.20815898154 -0.77490839027 0)
(-2.35781771591 -0.673941801813 0)
(-2.48830177291 -0.571780514472 0)
(-2.59646934802 -0.472413840192 0)
(-2.68281218739 -0.379483166406 0)
(-2.74973302588 -0.295368459959 0)
(-2.80035274045 -0.221137266282 0)
(-2.83783258126 -0.156872863053 0)
(-2.86505404499 -0.102054624613 0)
(-2.88449225493 -0.0558208083554 0)
(-2.89817271764 -0.0171287405059 0)
(-2.90767088446 0.0151465194501 0)
(-2.91414453933 0.0421323771155 0)
(-2.91839984161 0.0648918026486 0)
(-2.92097951661 0.0843738455242 0)
(-2.9222494554 0.101400784585 0)
(-2.92245369784 0.116683428525 0)
(-2.92173257037 0.130854113231 0)
(-2.92012388865 0.144523860559 0)
(-2.91746114127 0.158324068338 0)
(-2.91348425321 0.172961160493 0)
(-2.90738417952 0.189462996886 0)
(-2.8980697093 0.209716967364 0)
(-2.88262317185 0.237021977985 0)
(-2.85927546605 0.27327244692 0)
(-2.82612159615 0.319731686367 0)
(-2.78076849444 0.376759009121 0)
(-2.72033101955 0.443724325556 0)
(-2.64196184802 0.518842335356 0)
(-2.54375159055 0.599200726543 0)
(-2.42552684204 0.681362526223 0)
(-2.28900763886 0.762529857168 0)
(-2.13729605333 0.841578082319 0)
(-1.97424195624 0.919184558495 0)