/*--------------------------------*- C++ -*----------------------------------*\
| =========                 |                                                 |
| \\      /  F ield         | OpenFOAM: The Open Source CFD Toolbox           |
|  \\    /   O peration     | Version:  v1806                                 |
|   \\  /    A nd           | Web:      www.OpenFOAM.com                      |
|    \\/     M anipulation  |                                                 |
\*---------------------------------------------------------------------------*/
FoamFile
{
    version     2.0;
    format      ascii;
    class       volVectorField;
    location    "200";
    object      Ua;
}
// * * * * * * * * * * * * * * * * * * * * * * * * * * * * * * * * * * * * * //

dimensions      [0 1 -1 0 0 0 0];


internalField   nonuniform List<vector> 
6400
(
(-0.68430899094 0.776751655845 0)
(-3.15435655917 3.11942308516 0)
(-5.09766585367 4.96515348947 0)
(-6.36552072583 4.08890846561 0)
(-7.17267046857 2.64339089796 0)
(-7.38827914644 -0.178112573489 0)
(-8.0043919122 -3.69314415364 0)
(-8.61022616721 -5.87690886272 0)
(-9.01837062672 -8.07440274135 0)
(-9.34491842746 -10.293624892 0)
(-9.62380892228 -12.5490446087 0)
(-9.86058413934 -14.8414742692 0)
(-10.0589941166 -17.1649367563 0)
(-10.2251013634 -19.5132368896 0)
(-10.365159464 -21.8818688841 0)
(-10.484258215 -24.2677099711 0)
(-10.5862631711 -26.6684805335 0)
(-10.6741573318 -29.0825438554 0)
(-10.7503210322 -31.508849755 0)
(-10.816676693 -33.9469484344 0)
(-10.8747668602 -36.3969556674 0)
(-10.9258083661 -38.8595321351 0)
(-10.9707495969 -41.335831639 0)
(-11.0103254187 -43.8274815591 0)
(-11.0451101843 -46.3365509174 0)
(-11.0755585884 -48.8655477971 0)
(-11.1020387333 -51.417406365 0)
(-11.1248527759 -53.9954930675 0)
(-11.144257863 -56.603602195 0)
(-11.1604737556 -59.2459765666 0)
(-11.1737349633 -61.9273339412 0)
(-11.1842923816 -64.6530410867 0)
(-11.1927194612 -67.4293643923 0)
(-11.1995741426 -70.2643220625 0)
(-11.2057660421 -73.1660149548 0)
(-11.2046738241 -76.1351005207 0)
(-11.1822574894 -79.130206892 0)
(-11.1285285996 -82.0878267643 0)
(-11.0520336656 -84.8131391657 0)
(-10.9616217117 -87.260866899 0)
(-10.8633805609 -89.4136657068 0)
(-10.7603888127 -91.2601391749 0)
(-10.6540580281 -92.7924080235 0)
(-10.5451961084 -94.0051627177 0)
(-10.4344173606 -94.8952742651 0)
(-10.3222279572 -95.4615107557 0)
(-10.2090385731 -95.704327842 0)
(-10.095189114 -95.6256860422 0)
(-9.98097795175 -95.2289473309 0)
(-9.86669507879 -94.5188087222 0)
(-9.75265141601 -93.5013140284 0)
(-9.63920859312 -92.1839112772 0)
(-9.52680528437 -90.5755825358 0)
(-9.41598014882 -88.6870173294 0)
(-9.30738863789 -86.5308310772 0)
(-9.2018092456 -84.1217975764 0)
(-9.10013826867 -81.4770669472 0)
(-9.00336615715 -78.6163354014 0)
(-8.91253782062 -75.5619141632 0)
(-8.82869066997 -72.3386699205 0)
(-8.752777071 -68.9737774316 0)
(-8.6855685381 -65.4962789739 0)
(-8.6275521259 -61.9364077419 0)
(-8.57882139727 -58.3247086671 0)
(-8.53897131572 -54.690946013 0)
(-8.50700779434 -51.0628772425 0)
(-8.48125993662 -47.4649041878 0)
(-8.45935037263 -43.91674075 0)
(-8.43807946487 -40.4320404148 0)
(-8.41361054561 -37.0173671587 0)
(-8.38094068943 -33.670858534 0)
(-8.33535019026 -30.3826881266 0)
(-8.2688016001 -27.1322908086 0)
(-8.18011196332 -23.8972697764 0)
(-8.0489788848 -20.6347282311 0)
(-7.90463582539 -17.3401967809 0)
(-7.62481840439 -13.8705159235 0)
(-7.41979300955 -10.3568186428 0)
(-6.02880683022 -5.55403970797 0)
(-4.83707559199 -0.894961231559 0)
(-1.75547414907 -1.89552025657 0)
(-0.681963923682 -3.82898842896 0)
(-2.60410330263 -4.34195834657 0)
(-3.26884278058 -4.2965334981 0)
(-4.70828180576 -2.83867502928 0)
(-6.11548744617 -1.4177760793 0)
(-7.30771890592 0.0928482448996 0)
(-8.28102632603 1.47897064673 0)
(-9.1495382537 2.83859419555 0)
(-9.95198405252 4.21494918341 0)
(-10.6944931005 5.62321634984 0)
(-11.3767272275 7.06935105452 0)
(-12.0000188486 8.55637514192 0)
(-12.5683584653 10.0854532323 0)
(-13.0870638494 11.6565286757 0)
(-13.5615270519 13.2689727784 0)
(-13.996663182 14.9219512956 0)
(-14.3968248271 16.6146000831 0)
(-14.7658636656 18.3461101588 0)
(-15.1071828975 20.11581831 0)
(-15.4237671821 21.9232846695 0)
(-15.7182012881 23.7683696716 0)
(-15.9927014854 25.6512910409 0)
(-16.2491506291 27.5726727605 0)
(-16.4891420722 29.533580852 0)
(-16.7140151315 31.5355518146 0)
(-16.924889598 33.5806178175 0)
(-17.1226903919 35.6713260638 0)
(-17.3081657837 37.8107654658 0)
(-17.4819173438 40.0025750854 0)
(-17.6443655309 42.2509993803 0)
(-17.7958768359 44.5608648798 0)
(-17.9363995032 46.9377168893 0)
(-18.0670325545 49.3873064637 0)
(-18.1899640117 51.9155224181 0)
(-18.3258967619 54.5235740507 0)
(-18.4880862744 57.107840251 0)
(-18.6568039968 59.5621399066 0)
(-18.8049687616 61.7501220111 0)
(-18.9231154608 63.6551686729 0)
(-19.0098057869 65.274938096 0)
(-19.0642361976 66.6074588622 0)
(-19.0850940172 67.6521362722 0)
(-19.0709442769 68.409929663 0)
(-19.0204400027 68.8832616588 0)
(-18.9323319673 69.0758935996 0)
(-18.8054299347 68.9928260656 0)
(-18.6385870188 68.6402133787 0)
(-18.43069035 68.0253094858 0)
(-18.1806657539 67.1564598267 0)
(-17.8874772235 66.0431440884 0)
(-17.5501413542 64.6960816423 0)
(-17.1677440272 63.1273773758 0)
(-16.7394808646 61.3507095356 0)
(-16.2647110042 59.3815112888 0)
(-15.7430412043 57.2371358398 0)
(-15.17443003 54.9369401829 0)
(-14.5593194046 52.5022727789 0)
(-13.8987810342 49.956302765 0)
(-13.1946720239 47.3236875626 0)
(-12.4497838209 44.6300432196 0)
(-11.6679673108 41.901243333 0)
(-10.854217851 39.1625548103 0)
(-10.0147008363 36.4376710033 0)
(-9.15670786215 33.7476912677 0)
(-8.28854008778 31.1101270332 0)
(-7.41930714744 28.5380087358 0)
(-6.5587054886 26.0391678398 0)
(-5.71664226124 23.6157968839 0)
(-4.9031544499 21.2642882264 0)
(-4.12744316918 18.9758161854 0)
(-3.39936937997 16.7368357749 0)
(-2.72423419947 14.5325738307 0)
(-2.11649603263 12.3456429945 0)
(-1.56029987204 10.1780195505 0)
(-1.12343828958 8.0166808089 0)
(-0.625307723106 6.00630815816 0)
(-0.683401264792 4.0576603808 0)
(0.963724689967 4.11645600584 0)
(-2.28351491389 4.68373133504 0)
(-4.02642104055 -3.67318372423 0)
(-1.48734616807 -5.28286976787 0)
(-2.68384625377 -3.39635302188 1.80767263264e-28)
(-2.99582959395 -2.42732003145 -1.07185852089e-28)
(-3.29238817862 -1.86177233602 -6.40721210209e-29)
(-3.6943494808 -1.66231447575 5.19270148226e-29)
(-4.14956692679 -1.76537659354 -1.10811931063e-29)
(-4.62304751748 -1.97180313122 9.84004467799e-30)
(-5.0775414546 -2.21834300109 0)
(-5.48869840837 -2.50286195554 0)
(-5.8451935714 -2.83486735521 0)
(-6.14428552628 -3.22190687689 0)
(-6.38796831867 -3.66844217707 0)
(-6.58105385217 -4.17695246607 0)
(-6.72973355712 -4.74862272693 0)
(-6.84034410933 -5.38365189178 0)
(-6.91865919101 -6.08152778959 0)
(-6.96968861141 -6.84126889825 0)
(-6.99772241017 -7.66166312317 0)
(-7.00641939154 -8.54143963735 0)
(-6.99887630593 -9.47942472608 0)
(-6.97768541816 -10.4746479833 0)
(-6.94499340744 -11.526443044 0)
(-6.90256592246 -12.6345166013 0)
(-6.85185090815 -13.7990174896 0)
(-6.79403757136 -15.0205877812 0)
(-6.73010508014 -16.3004177252 0)
(-6.66086514805 -17.6402874455 0)
(-6.58699186843 -19.0426260852 0)
(-6.50905732741 -20.5105342151 -4.66285108595e-28)
(-6.42753100733 -22.0479390879 4.65882785289e-28)
(-6.34282125128 -23.6594344043 0)
(-6.25499384761 -25.3510652475 0)
(-6.16295387364 -27.1285644568 0)
(-6.060514863 -29.0026607366 0)
(-5.93183913843 -30.9438249977 0)
(-5.79318383591 -32.7354620811 0)
(-5.67645573673 -34.2877777068 0)
(-5.59139510404 -35.6040378623 0)
(-5.53582499293 -36.6813373298 0)
(-5.50708074626 -37.519268232 0)
(-5.50442410946 -38.1209142083 0)
(-5.52780673564 -38.4916730602 0)
(-5.57718144212 -38.6386162879 0)
(-5.65235602147 -38.5701874621 0)
(-5.75293963845 -38.2959728238 0)
(-5.87827876194 -37.826453924 0)
(-6.02739572303 -37.172816632 0)
(-6.19894214805 -36.3468160605 0)
(-6.39115738679 -35.3607315989 0)
(-6.60182976401 -34.2273900962 0)
(-6.82825225894 -32.9602561587 0)
(-7.06717632806 -31.5735608462 0)
(-7.31476022744 -30.0824360441 0)
(-7.56651963266 -28.5030232041 0)
(-7.81728269258 -26.8525022183 0)
(-8.0611617763 -25.1490198318 0)
(-8.29155034525 -23.4114639179 0)
(-8.50115999944 -21.6590944169 0)
(-8.6821090293 -19.9110046902 0)
(-8.82607406591 -18.1854714847 0)
(-8.92451021772 -16.4992085273 0)
(-8.96893739834 -14.8666238215 0)
(-8.95128297507 -13.299124581 0)
(-8.86425520458 -11.8045794771 0)
(-8.70172877192 -10.3869818676 0)
(-8.45907860961 -9.04639465545 0)
(-8.13351170861 -7.77922875319 0)
(-7.72414188194 -6.57885270047 0)
(-7.23240976019 -5.43674147922 0)
(-6.66112615606 -4.34382513031 0)
(-6.01687645943 -3.29347539322 0)
(-5.30236929947 -2.28227605434 0)
(-4.53646721378 -1.32036242465 0)
(-3.69446188361 -0.416109807138 0)
(-2.88429486598 0.365972850279 0)
(-1.83226751429 1.10558035496 0)
(-1.56941207543 1.53484014034 0)
(1.5709870489 3.67617225956 0)
(-3.30206396419 4.95195452648 0)
(-3.97031898838 -5.33672395239 0)
(-4.28689368377 -2.81731266497 0)
(-3.05301183109 -2.06924585782 0)
(-2.44787458362 -2.42348489549 0)
(-2.75860286291 -2.57795369268 0)
(-3.30924900598 -2.56838579732 0)
(-3.88701161537 -2.45866115102 0)
(-4.44225606363 -2.25506013796 0)
(-4.93745865804 -1.980988931 0)
(-5.35853201985 -1.6670462592 0)
(-5.71066342433 -1.33402527142 0)
(-6.00445518917 -0.991940306105 0)
(-6.24999421787 -0.644004806548 0)
(-6.4563776828 -0.289617660223 0)
(-6.63177995689 0.073882155356 0)
(-6.7831310062 0.450136250656 0)
(-6.91594340703 0.843119795294 0)
(-7.03446252709 1.25677372342 0)
(-7.14195277921 1.69481705044 0)
(-7.2409503314 2.16066284194 0)
(-7.33344092966 2.65741136922 0)
(-7.42098463402 3.18788975242 0)
(-7.50481486927 3.75472737827 0)
(-7.58592074292 4.36044461603 0)
(-7.66511656947 5.00755089469 0)
(-7.74309432536 5.69863993004 0)
(-7.82046663159 6.43648629786 0)
(-7.8977860125 7.22413588929 0)
(-7.97558276738 8.06500334741 0)
(-8.0543101687 8.96295195592 0)
(-8.13449764757 9.92242747146 0)
(-8.21627232068 10.9484582125 0)
(-8.30065956748 12.0471233051 0)
(-8.38681948475 13.2249774361 0)
(-8.48330015275 14.4925727985 0)
(-8.58339451308 15.7559576568 0)
(-8.66046086531 16.8438371435 0)
(-8.71144357546 17.7554797546 0)
(-8.742604403 18.4841203747 0)
(-8.75478296448 19.0283162915 0)
(-8.7464234189 19.3922400392 0)
(-8.71698909838 19.5835348625 0)
(-8.66691082709 19.6122538583 0)
(-8.59695064196 19.490266458 0)
(-8.50801756967 19.2306613066 0)
(-8.40120800676 18.8471980172 2.12368516296e-27)
(-8.27784889705 18.3538613549 -2.14225293102e-27)
(-8.13951478455 17.7645443536 0)
(-7.9880306091 17.0928325764 0)
(-7.82547296359 16.351894081 0)
(-7.65416339573 15.5544448566 0)
(-7.47665570646 14.712782536 0)
(-7.29570844605 13.8388468914 0)
(-7.1142417356 12.9442856392 0)
(-6.93526816017 12.0404817164 0)
(-6.76179419999 11.1385203794 0)
(-6.59668395539 10.2490685565 0)
(-6.44248387799 9.38216512604 1.50342842583e-27)
(-6.30120912983 8.54692938969 -1.53718686322e-27)
(-6.17410046026 7.75122022078 0)
(-6.06136815997 7.00129022377 0)
(-5.96194732339 6.30149133261 0)
(-5.87329565022 5.65408940838 0)
(-5.79126819264 5.05923587185 0)
(-5.71009647088 4.5151300308 0)
(-5.62250835894 4.0183802428 0)
(-5.51996185041 3.56455990595 0)
(-5.39309638135 3.1489179236 0)
(-5.2320854574 2.76728379723 0)
(-5.02771126753 2.41690967669 0)
(-4.77078467342 2.09784716252 0)
(-4.4564354178 1.81314842991 0)
(-4.07472319627 1.57238394861 0)
(-3.63993769853 1.38459866328 0)
(-3.10756747579 1.28015026777 0)
(-2.62167393926 1.24147433531 0)
(-1.77881856619 1.4161229334 0)
(-2.00799538738 1.5085786323 0)
(1.87359215591 3.67558950332 0)
(-4.49045853367 4.64735301858 0)
(5.09408412397 -10.8470093854 0)
(-2.62868417345 -2.41018367327 0)
(-1.36448628563 -2.25265330437 0)
(-1.47056007895 -2.96721541396 0)
(-2.48766224713 -3.13953898917 0)
(-3.29051598107 -3.06381148476 0)
(-3.86225567004 -2.87694419916 0)
(-4.30928011968 -2.62150753844 0)
(-4.65133366973 -2.34159059834 0)
(-4.90109366832 -2.07305382965 0)
(-5.080913136 -1.83601393328 0)
(-5.21041291582 -1.63932417792 0)
(-5.30290368541 -1.48559249287 0)
(-5.3675867277 -1.37417956311 0)
(-5.4112484974 -1.30301930217 0)
(-5.43881799994 -1.2696992564 0)
(-5.45369351731 -1.27199929311 0)
(-5.45814908563 -1.30809505967 0)
(-5.45372055087 -1.37662069733 0)
(-5.4414779586 -1.47666932474 0)
(-5.42218844965 -1.60777301545 0)
(-5.39641228174 -1.7698654289 0)
(-5.36456459949 -1.96324818478 0)
(-5.32695962292 -2.18856193335 0)
(-5.28384159223 -2.44677503927 0)
(-5.23540709625 -2.7391852689 0)
(-5.18181621651 -3.0674371987 0)
(-5.12320505912 -3.43355582194 0)
(-5.05967360572 -3.83997825007 0)
(-4.99132608612 -4.28963759108 0)
(-4.91815251954 -4.78594001954 -6.48806264747e-28)
(-4.84034943568 -5.33305017689 6.51292996626e-28)
(-4.75733024474 -5.93530634518 0)
(-4.67004973092 -6.59901865407 0)
(-4.57347822722 -7.32838396714 0)
(-4.4810874634 -7.99699673001 0)
(-4.40865983385 -8.547030625 0)
(-4.35754427611 -8.96665387288 0)
(-4.32881919951 -9.25399155349 0)
(-4.32231314895 -9.41319061419 0)
(-4.33633778798 -9.45094910682 0)
(-4.36904429792 -9.37620404914 0)
(-4.4187686231 -9.19995025542 0)
(-4.48374521849 -8.93457260499 0)
(-4.56193983514 -8.59308607616 0)
(-4.65105884818 -8.18851265786 0)
(-4.74859985781 -7.73339195189 0)
(-4.85188785304 -7.23943024182 0)
(-4.95810707874 -6.71726895743 0)
(-5.0643366709 -6.17637683183 0)
(-5.16759623832 -5.62503477633 0)
(-5.26490004367 -5.0703967337 0)
(-5.35332304869 -4.5185899025 0)
(-5.43007852198 -3.9748310936 0)
(-5.49260829746 -3.4435312108 0)
(-5.53868251557 -2.92837193724 0)
(-5.56650255959 -2.43234721411 0)
(-5.57479606133 -1.9577715526 0)
(-5.56288719197 -1.50627261296 0)
(-5.53072358789 -1.07878659324 0)
(-5.47883867047 -0.675586768568 0)
(-5.40823497743 -0.296361870927 0)
(-5.32017887302 0.0596371169247 0)
(-5.21591671375 0.393387806736 0)
(-5.09632556162 0.705835732527 0)
(-4.96155601259 0.997608486394 0)
(-4.81066224105 1.26874293929 0)
(-4.64142001244 1.5184242027 0)
(-4.44999617989 1.74484781091 0)
(-4.23162545108 1.94501086575 0)
(-3.97932064219 2.11510959091 0)
(-3.68927178181 2.24990875508 0)
(-3.34880925776 2.34657992032 0)
(-2.97618798938 2.3979976725 0)
(-2.51212476939 2.42120458686 0)
(-2.14997523995 2.38561262019 0)
(-1.35348240417 2.45869168386 0)
(-2.01374458188 2.31268911611 0)
(2.59406941962 4.324471261 0)
(-5.6496002964 4.71146190332 0)
(12.0173954078 -10.6962146463 0)
(-3.58063074431 -1.91952556696 0)
(-0.949899631055 -3.37045138436 0)
(-1.56569404045 -4.11073659534 0)
(-2.8770635798 -4.04709997903 0)
(-3.58559193266 -3.76513970257 0)
(-3.97166522741 -3.38509236694 0)
(-4.23379971529 -2.96120356776 0)
(-4.40694835575 -2.54566085639 0)
(-4.51223440252 -2.16653162017 0)
(-4.57577843465 -1.83251729243 0)
(-4.61607485412 -1.54317799388 0)
(-4.64326202264 -1.29401724431 0)
(-4.66299795318 -1.07879699007 0)
(-4.6787054622 -0.890936558251 0)
(-4.69236693185 -0.724275666394 0)
(-4.70496118515 -0.573332192887 0)
(-4.71685578569 -0.4333074752 0)
(-4.72810840728 -0.300012375513 0)
(-4.73864810273 -0.169783687122 0)
(-4.7483667651 -0.0393963324123 0)
(-4.75716235141 0.0940233958897 0)
(-4.76496081605 0.233084229204 0)
(-4.77172876198 0.380208648484 0)
(-4.77748166259 0.537706543963 0)
(-4.78228928467 0.707842439345 0)
(-4.78627854295 0.892900657256 0)
(-4.78963730604 1.09525311947 0)
(-4.79261091417 1.31742333199 0)
(-4.79551741775 1.5621815057 0)
(-4.79872022777 1.83257787932 0)
(-4.80273518434 2.13220791752 0)
(-4.8081367786 2.46488404434 0)
(-4.81606363557 2.83607258137 0)
(-4.82659590435 3.24178775757 0)
(-4.82851430363 3.58840177751 0)
(-4.81808877325 3.86222330135 0)
(-4.7954398545 4.0582184784 0)
(-4.76201540118 4.17542278493 0)
(-4.71953850486 4.21626630115 0)
(-4.66948370815 4.18677467909 0)
(-4.6133978823 4.09572066631 0)
(-4.55314584131 3.9533939818 0)
(-4.4908008217 3.77066380024 0)
(-4.42847100349 3.55830736658 0)
(-4.36820386824 3.3264924375 0)
(-4.31192675045 3.08438933464 0)
(-4.26138360872 2.8399299475 0)
(-4.21806324514 2.59970195353 0)
(-4.18312979645 2.36895859187 0)
(-4.15735928429 2.1517130552 0)
(-4.14108484305 1.95089025281 0)
(-4.13415111629 1.76850835742 0)
(-4.13588078077 1.60586676742 0)
(-4.14505759876 1.46372369168 0)
(-4.15993216261 1.34245069034 0)
(-4.17825825328 1.24216137004 0)
(-4.19736568852 1.16281287763 0)
(-4.21427378733 1.10428753437 0)
(-4.22584113504 1.06645790569 0)
(-4.22894109886 1.0492420808 0)
(-4.22064005591 1.05264741425 0)
(-4.1983501035 1.07679826656 0)
(-4.15992248004 1.12193988161 0)
(-4.1036474574 1.18840321513 0)
(-4.02815845766 1.27652346156 0)
(-3.93217980556 1.38650500875 0)
(-3.81431652158 1.51818362514 0)
(-3.67243063845 1.67078506585 0)
(-3.50406581452 1.84235458034 0)
(-3.30417501319 2.02956241189 0)
(-3.07117615417 2.22587069692 0)
(-2.79073666149 2.42410968555 0)
(-2.48587881086 2.60671787601 0)
(-2.07794713474 2.77535889035 0)
(-1.81022942129 2.86987382967 0)
(-0.991668727302 3.04532062849 0)
(-2.04298249094 2.89073490334 0)
(3.46718584921 4.98935497414 0)
(-6.95966119598 4.91310189926 0)
(17.9086672404 -10.4476085632 0)
(-6.25619911096 -2.40116396712 0)
(-1.09813679349 -4.81810898544 0)
(-2.0291673506 -5.06438073958 0)
(-3.26618222402 -4.62022350954 0)
(-3.68087969499 -4.10317409939 0)
(-3.83021165871 -3.5580952326 0)
(-3.91435241682 -3.03236926245 0)
(-3.94999788438 -2.5661941363 0)
(-3.95374168902 -2.16986520882 0)
(-3.94580948684 -1.83916929179 2.58186406101e-28)
(-3.93738822412 -1.56627389332 -2.54985038667e-28)
(-3.93252995263 -1.34269326026 0)
(-3.93226299492 -1.16025255575 0)
(-3.93639713349 -1.01175763717 0)
(-3.94409141616 -0.891275046152 0)
(-3.95416786897 -0.79407956844 0)
(-3.96536037589 -0.716476901633 0)
(-3.97647254408 -0.655628384908 0)
(-3.98644914274 -0.609404712706 0)
(-3.9943938282 -0.576265939835 0)
(-3.99956193723 -0.555160221826 0)
(-4.00134410447 -0.545442753229 0)
(-3.99924843555 -0.546812235639 0)
(-3.99288364343 -0.559266138961 0)
(-3.98194439712 -0.583070162047 0)
(-3.96619882051 -0.618742176683 0)
(-3.94547701133 -0.667046379152 0)
(-3.91966506404 -0.728998700233 0)
(-3.88869059165 -0.805882833516 0)
(-3.85254080804 -0.899271779182 0)
(-3.81118524396 -1.01108735923 6.33416339272e-28)
(-3.76471427225 -1.14360933144 -6.39181135296e-28)
(-3.7128700386 -1.29983103254 0)
(-3.65729112645 -1.46554797018 0)
(-3.60715632056 -1.59576509521 0)
(-3.56403845651 -1.68460185586 0)
(-3.52822489105 -1.72921977052 0)
(-3.49996231791 -1.73011833856 0)
(-3.47918248967 -1.69076869005 0)
(-3.46523731838 -1.61658392399 0)
(-3.45708318379 -1.51400065943 0)
(-3.45357640598 -1.38986183556 0)
(-3.45360349729 -1.25089129154 0)
(-3.45611488216 -1.10322026902 0)
(-3.46016436322 -0.952043258373 0)
(-3.4649621296 -0.801431993343 0)
(-3.46991278425 -0.654289579654 0)
(-3.47462930777 -0.512412095642 0)
(-3.47892469851 -0.376626573027 0)
(-3.48278585527 -0.246977444288 0)
(-3.48633047167 -0.122933705458 0)
(-3.48974797136 -0.00359635234482 0)
(-3.49322566396 0.11211360445 0)
(-3.49686273044 0.225296546664 0)
(-3.50057735729 0.336955678513 0)
(-3.5040143313 0.44791980722 0)
(-3.50646506618 0.558811235055 0)
(-3.50681295849 0.670053962984 0)
(-3.50351977787 0.781921521789 0)
(-3.49466396614 0.894614909013 0)
(-3.47803682471 1.00836726938 0)
(-3.45128873034 1.12355765928 0)
(-3.41210658253 1.24083183572 0)
(-3.35838217986 1.36119634117 0)
(-3.28835191514 1.48608624436 0)
(-3.20058846977 1.61737511577 0)
(-3.09404117786 1.75726302876 0)
(-2.96748765563 1.90815944825 0)
(-2.82015387094 2.07211948783 0)
(-2.64879522705 2.25060434975 0)
(-2.45478195397 2.44231497236 0)
(-2.22328904429 2.64541242994 0)
(-1.98449345531 2.84563441609 0)
(-1.63913171335 3.04713198962 0)
(-1.48565246172 3.18035253957 0)
(-0.651433203072 3.40851558206 0)
(-2.16116034848 3.24178144989 0)
(4.39810609236 5.50753112013 0)
(-8.41838556677 5.05517692068 0)
(23.9631450804 -10.1100515203 0)
(-9.59553646286 -3.37171298101 0)
(-0.91204223292 -6.32643279632 0)
(-2.2969613331 -5.83729451178 0)
(-3.33131395692 -5.02879465803 0)
(-3.46916608964 -4.31299339301 0)
(-3.46656821395 -3.64446112484 0)
(-3.45784368546 -3.05536508445 0)
(-3.43323017998 -2.56297017196 0)
(-3.40369532165 -2.15835546349 0)
(-3.38230475984 -1.82672274253 0)
(-3.37350514199 -1.55468429144 0)
(-3.37691408383 -1.33064134445 0)
(-3.39070448834 -1.1446939395 0)
(-3.41267189881 -0.988718925113 0)
(-3.44053812763 -0.856248259192 0)
(-3.47214273213 -0.742183745912 0)
(-3.50557141763 -0.642499634829 0)
(-3.53920865273 -0.553997597129 0)
(-3.57173717485 -0.474116518149 0)
(-3.60211133811 -0.40078295837 0)
(-3.62952081651 -0.332293473581 0)
(-3.6533537132 -0.267221333443 0)
(-3.67316314965 -0.20434345519 0)
(-3.68863961519 -0.142581777713 0)
(-3.69958915843 -0.080955512759 0)
(-3.7059164261 -0.0185398537328 0)
(-3.70761478944 0.045571944455 0)
(-3.70475276149 0.112305255466 0)
(-3.69748867563 0.18264216333 0)
(-3.68601921768 0.257665705034 0)
(-3.67072786989 0.338596471157 0)
(-3.65178409236 0.426906771772 0)
(-3.63020226764 0.524255445835 0)
(-3.6042752582 0.617172201128 0)
(-3.5717844081 0.688740766049 0)
(-3.53240624401 0.736570507477 0)
(-3.48690746877 0.760652029723 0)
(-3.43658525017 0.762860471159 0)
(-3.38297006418 0.746332012298 0)
(-3.32759448893 0.715052966541 0)
(-3.2719183268 0.673475115836 0)
(-3.21734005365 0.626050594702 0)
(-3.16516758428 0.57682273538 0)
(-3.11654567782 0.529174798005 5.63737822153e-28)
(-3.07239678323 0.485728954909 -5.6759609243e-28)
(-3.03339419407 0.448356749935 0)
(-2.99995816107 0.41826844907 0)
(-2.97226466313 0.39615669184 0)
(-2.95026447656 0.382364286764 0)
(-2.93371003615 0.377053105078 0)
(-2.92218582542 0.380349972617 0)
(-2.91513649104 0.392458542118 0)
(-2.91188677224 0.413725013886 0)
(-2.91164862922 0.44465824225 0)
(-2.91351173089 0.485902155209 0)
(-2.91641699986 0.538170801209 0)
(-2.9191152733 0.602153278036 0)
(-2.92011990454 0.678407274519 0)
(-2.91766518388 0.767257781002 0)
(-2.90969112939 0.868720688096 0)
(-2.89386958974 0.982476633954 0)
(-2.86769527942 1.10789383593 0)
(-2.82863487135 1.24412958299 0)
(-2.77432829962 1.39027048221 0)
(-2.70282206518 1.54553585619 0)
(-2.61271417002 1.70947974125 0)
(-2.50340634749 1.88204320605 0)
(-2.37465253484 2.06375460314 0)
(-2.22749950983 2.25529453705 0)
(-2.06091872499 2.45751370328 0)
(-1.88036191568 2.66901179842 0)
(-1.67213138211 2.88859512829 0)
(-1.47729079329 3.10226310779 0)
(-1.17744551574 3.31615641573 0)
(-1.13752355253 3.45459577709 0)
(-0.279794783578 3.69586949131 0)
(-2.33198227343 3.47408226681 0)
(5.41981645286 5.90771488683 0)
(-9.98244569632 5.11967127784 0)
(30.5079256918 -9.86808354021 0)
(-13.4920208596 -4.77225273506 0)
(-0.29044462501 -7.71761273208 0)
(-2.42202915366 -6.32845770567 0)
(-3.17170588745 -5.22701304416 0)
(-3.10192296708 -4.36448457776 0)
(-3.03141211459 -3.62016950457 0)
(-2.99078641285 -3.00767305713 0)
(-2.95255298986 -2.51775549502 0)
(-2.92507108222 -2.12582365502 0)
(-2.91551119426 -1.81031243458 0)
(-2.92365714444 -1.55460377546 0)
(-2.94659818677 -1.34549339849 0)
(-2.98102685639 -1.17251105944 0)
(-3.02372314386 -1.02757023899 0)
(-3.07171479623 -0.904541968596 0)
(-3.12239994714 -0.798810795529 0)
(-3.17359932383 -0.706901946426 0)
(-3.22354565663 -0.626196186651 0)
(-3.27084151348 -0.55471742373 0)
(-3.31440598781 -0.490976207315 0)
(-3.35342035083 -0.433855483043 0)
(-3.38727746886 -0.382528353671 0)
(-3.41553825921 -0.336399200502 0)
(-3.43789597781 -0.295062227611 0)
(-3.45414813446 -0.258272191226 0)
(-3.46417564728 -0.225925194094 0)
(-3.46792601483 -0.198044448262 0)
(-3.46540514922 -0.174777637692 0)
(-3.45666475396 -0.156384995254 0)
(-3.44181173608 -0.143271457203 0)
(-3.4209869164 -0.135921146846 0)
(-3.39445390295 -0.135105191001 6.80906945123e-28)
(-3.36263198268 -0.141373452873 -6.91614287339e-28)
(-3.32674223829 -0.144812948378 0)
(-3.28841954047 -0.140638297679 0)
(-3.24802488359 -0.127816619974 0)
(-3.20580731629 -0.106474047264 0)
(-3.16201351854 -0.0778227395897 0)
(-3.11684983226 -0.0438273448693 0)
(-3.07047625893 -0.00675170396247 0)
(-3.02305013874 0.0312724836319 0)
(-2.97480256903 0.0685265105441 0)
(-2.92609106913 0.103836921747 0)
(-2.87740672643 0.136608263574 0)
(-2.82935275264 0.166786120363 0)
(-2.78261145773 0.194764708403 0)
(-2.73790206257 0.221265995347 0)
(-2.69593060461 0.247215142194 0)
(-2.65733615185 0.273636816432 0)
(-2.62263938089 0.301580805572 0)
(-2.59219729877 0.332084044366 0)
(-2.56616596802 0.366162913836 0)
(-2.5444711599 0.40483204179 0)
(-2.52678537306 0.449135416683 0)
(-2.51250908571 0.500179465144 0)
(-2.50075284427 0.559151457694 0)
(-2.49031837638 0.627312446607 0)
(-2.47967812429 0.705951932221 0)
(-2.46695616147 0.796309163244 0)
(-2.44992598628 0.899454331121 0)
(-2.4260312226 1.01617319 0)
(-2.39246585716 1.14684380163 0)
(-2.34631692272 1.29141496777 0)
(-2.28479928331 1.44936167332 0)
(-2.20555335706 1.61984460251 0)
(-2.10686233149 1.80192099325 0)
(-1.98814366852 1.99475364736 0)
(-1.84965425186 2.19776952387 0)
(-1.69381753585 2.41040302804 0)
(-1.52123000016 2.63235485152 0)
(-1.34114408698 2.86145453929 0)
(-1.14109551274 3.09559972829 0)
(-0.974873206279 3.31949964096 0)
(-0.704881598069 3.53946917613 0)
(-0.771929878315 3.67231791843 0)
(0.130833487582 3.91048566919 0)
(-2.54520654287 3.61281976913 0)
(6.58235459581 6.2215395279 0)
(-11.6495077572 5.12642463647 0)
(37.5414492793 -9.70614267032 0)
(-17.9126883187 -6.41298079056 0)
(0.835908465802 -8.82809064075 0)
(-2.46613360576 -6.54897083465 0)
(-2.86533743806 -5.29386422293 0)
(-2.68398821239 -4.34678157685 0)
(-2.61115584868 -3.5708370606 0)
(-2.57538530593 -2.96265499989 0)
(-2.54902364469 -2.48951816588 0)
(-2.54075442362 -2.11700896294 0)
(-2.5536426334 -1.82001149461 0)
(-2.58492066546 -1.58007334062 0)
(-2.6305846876 -1.3831051786 0)
(-2.68672516997 -1.21845570332 0)
(-2.74973116054 -1.07824442315 0)
(-2.81642204171 -0.9567065514 0)
(-2.88413595656 -0.849630780599 0)
(-2.95073482174 -0.753925941756 0)
(-3.0145558701 -0.667300921825 0)
(-3.07434340628 -0.588033875035 0)
(-3.12917782088 -0.514809122995 0)
(-3.17840870045 -0.446604221125 0)
(-3.22159612284 -0.38261203458 0)
(-3.25846149593 -0.322186879642 0)
(-3.28884885173 -0.264806416075 0)
(-3.31269462992 -0.210043786226 0)
(-3.33000642316 -0.1575465409 0)
(-3.34084570837 -0.107018290715 0)
(-3.34532076159 -0.0582064043933 0)
(-3.34357448991 -0.0108818776745 0)
(-3.33579694352 0.035157763935 0)
(-3.32221296603 0.0801393653079 0)
(-3.30310173402 0.124213361076 0)
(-3.27877144277 0.167509101897 0)
(-3.24815233792 0.204675155753 0)
(-3.21139863756 0.234510065892 0)
(-3.16895165462 0.257123236874 0)
(-3.12144754016 0.273298998571 0)
(-3.06967300155 0.284216880901 0)
(-3.01450201303 0.291209245773 0)
(-2.9568138308 0.295573155066 0)
(-2.89743474312 0.298449751288 0)
(-2.83712145309 0.300758647626 0)
(-2.77656777395 0.303182660351 0)
(-2.71641262306 0.306205979611 0)
(-2.65724685642 0.310189601412 0)
(-2.59962214442 0.315458545199 0)
(-2.54405977462 0.322377485606 0)
(-2.4910534006 0.331406193881 0)
(-2.44106191454 0.343130374112 0)
(-2.3944910195 0.358272513478 0)
(-2.35166391446 0.377685839553 0)
(-2.31278230563 0.402340229718 0)
(-2.2778798853 0.433303975645 0)
(-2.24677110125 0.471728751845 0)
(-2.21899906078 0.518835450111 0)
(-2.19378608933 0.575903046998 0)
(-2.16999054347 0.64425095448 0)
(-2.14607610354 0.725205134927 0)
(-2.12009184597 0.820042143103 0)
(-2.08967792439 0.929884906554 0)
(-2.05210066903 1.05561633411 0)
(-2.00436260593 1.19765016233 0)
(-1.94331960571 1.35590598641 0)
(-1.86594908286 1.5296806413 0)
(-1.76973989283 1.71771703497 0)
(-1.65312578616 1.91831063237 0)
(-1.51568695005 2.12933058848 0)
(-1.35816028106 2.34934306279 0)
(-1.1843674237 2.57638274481 0)
(-0.996798423208 2.80999286048 0)
(-0.808839013787 3.04572051149 0)
(-0.608920440298 3.2803491386 0)
(-0.464634930748 3.49787512687 0)
(-0.216638515624 3.70511102687 0)
(-0.388524028331 3.81790032657 0)
(0.574605493202 4.02737903677 0)
(-2.81609767185 3.66245789305 0)
(7.95442580573 6.46055455829 0)
(-13.4338013873 5.06350286586 0)
(44.9666310499 -9.64722186439 0)
(-22.7951257708 -8.19079880499 0)
(2.47850595597 -9.6091098267 0)
(-2.53581369397 -6.57164224217 0)
(-2.49471415613 -5.29724256986 0)
(-2.29534326051 -4.30120479209 0)
(-2.2517192427 -3.51958942311 0)
(-2.23287989571 -2.92877207411 0)
(-2.22617187488 -2.47779262917 0)
(-2.2405756682 -2.12716875563 0)
(-2.2761804682 -1.84977840601 0)
(-2.32892049639 -1.62592143585 0)
(-2.39431089628 -1.44105100212 0)
(-2.46815786836 -1.28466155358 0)
(-2.54670847601 -1.14932993884 0)
(-2.62678670433 -1.02986728731 0)
(-2.70584509158 -0.922654393919 0)
(-2.78192740008 -0.825153660866 0)
(-2.85358808487 -0.735562156107 0)
(-2.919801226 -0.652572299966 0)
(-2.9798731355 -0.575212684361 0)
(-3.03336495679 -0.502745271669 0)
(-3.08002753479 -0.434600503141 0)
(-3.11974931031 -0.370336675914 0)
(-3.15251615592 -0.309614396516 0)
(-3.17838094141 -0.252180377493 0)
(-3.19744283264 -0.197856878322 0)
(-3.20982861008 -0.14653371138 0)
(-3.21569022943 -0.0981670816171 0)
(-3.21517759314 -0.0527664768638 0)
(-3.20848227703 -0.0104273656162 0)
(-3.19571710224 0.0287503609581 0)
(-3.17721581582 0.0643929830477 0)
(-3.15296112628 0.0971969793276 0)
(-3.12327881349 0.129255591347 0)
(-3.08848674884 0.160603587859 0)
(-3.04876519559 0.191099787094 0)
(-3.0043019851 0.220318459431 0)
(-2.95537050588 0.247704452951 0)
(-2.90235207712 0.272723518028 0)
(-2.84572292523 0.294980389489 0)
(-2.78603521604 0.314293427282 0)
(-2.72390808885 0.330716837108 0)
(-2.66002126619 0.344517280055 0)
(-2.59509922785 0.356126819065 0)
(-2.52988557395 0.36609634418 0)
(-2.46511563654 0.375060864814 0)
(-2.4014928807 0.383722423485 0)
(-2.33966978057 0.392849016485 0)
(-2.28023097218 0.40328771484 0)
(-2.22367595693 0.415984966863 0)
(-2.17039789427 0.432010272154 0)
(-2.12065494435 0.452575894957 0)
(-2.07453125903 0.479050317852 0)
(-2.03188545747 0.512961809358 0)
(-1.99228890289 0.555986450219 0)