/*--------------------------------*- C++ -*----------------------------------*\
| =========                 |                                                 |
| \\      /  F ield         | OpenFOAM: The Open Source CFD Toolbox           |
|  \\    /   O peration     | Version:  v1806                                 |
|   \\  /    A nd           | Web:      www.OpenFOAM.com                      |
|    \\/     M anipulation  |                                                 |
\*---------------------------------------------------------------------------*/
FoamFile
{
    version     2.0;
    format      ascii;
    class       volScalarField;
    location    "500";
    object      p;
}
// * * * * * * * * * * * * * * * * * * * * * * * * * * * * * * * * * * * * * //

dimensions      [0 2 -2 0 0 0 0];


internalField   nonuniform List<scalar> 
6400
(
0.1877941291
0.187550675332
0.187172959398
0.186775488065
0.186628386025
0.186272226024
0.185460042838
0.184056410083
0.18210785706
0.179675861684
0.176843383763
0.173703168174
0.170348945016
0.16686904425
0.163342395821
0.159836510671
0.15640695745
0.153097858323
0.149942997315
0.146967226611
0.144187950338
0.141616544332
0.139259633967
0.137120194897
0.135198471262
0.133492720936
0.131999808169
0.130715665085
0.129635645424
0.12875479244
0.128068038525
0.127570344781
0.127256800835
0.127122742717
0.127163963046
0.127377087005
0.1277598251
0.128309793947
0.129021703632
0.129889739337
0.130909915773
0.132078227468
0.133390357895
0.134841932217
0.136428580009
0.138145949994
0.139989697182
0.141955449803
0.144038755267
0.146235004469
0.148539332583
0.150946498492
0.153450745437
0.156045651146
0.158723976225
0.161477525424
0.164297035307
0.167172105959
0.170091190012
0.173041652937
0.176009910055
0.17898164278
0.181942084533
0.184876361507
0.187769860567
0.19060859044
0.193379486031
0.196070597731
0.198671098132
0.201171026549
0.203560648293
0.20582920229
0.207962683997
0.209940796401
0.21173450879
0.213304008722
0.21458753172
0.215477218961
0.215857799154
0.215836839147
0.187834828798
0.187555156068
0.187291682276
0.18695361756
0.186534711062
0.186226113902
0.185397575269
0.18395713872
0.181961225802
0.179478073683
0.17659704649
0.173414748623
0.170027002725
0.166522851016
0.162980945652
0.159467881537
0.156037967765
0.152733948609
0.149588267475
0.146624567436
0.143859221731
0.141302765741
0.138961166193
0.136836900832
0.134929851406
0.133238022318
0.13175810942
0.130485937925
0.129416797111
0.128545690149
0.127867523964
0.127377222431
0.127069771951
0.126940223354
0.126983804434
0.127196630033
0.127577245224
0.128124790173
0.128835973645
0.129705478264
0.130727631698
0.131897299624
0.133209855067
0.134660840629
0.136245883095
0.137960653837
0.139800844591
0.141762129954
0.14384011867
0.146030277851
0.14832783866
0.150727672639
0.153224152982
0.155810996447
0.15848110702
0.161226423844
0.164037799723
0.166904916327
0.169816262195
0.172759176601
0.175719977127
0.178684163085
0.181636696801
0.184562338336
0.187446016718
0.190273196127
0.193030199108
0.195704421877
0.19828439377
0.200759606964
0.203119995514
0.205354907437
0.207451401067
0.209391861792
0.211151385818
0.212694728501
0.213970358598
0.214902504937
0.215403142833
0.215470503626
0.188303826858
0.187905968842
0.187445128936
0.187066120818
0.186496033963
0.18577463766
0.184637170893
0.182986815311
0.180835808483
0.178242074434
0.175289830314
0.17207126319
0.168677334066
0.16519177787
0.161687838081
0.158226957511
0.154858820379
0.15162223181
0.148546437839
0.145652605218
0.142955280496
0.140463726079
0.13818308534
0.136115364381
0.134260237185
0.132615692985
0.131178546321
0.129944829887
0.128910092425
0.128069629804
0.127418661165
0.126952411047
0.12666602987
0.126554478096
0.126613059865
0.126839434463
0.127235274016
0.12779702243
0.12851754113
0.129393040154
0.130419042094
0.131591024933
0.13290453455
0.134355179812
0.135938621941
0.137650565254
0.139486743043
0.141442892816
0.143514712417
0.145697793392
0.147987526481
0.150378980298
0.152866753937
0.155444811675
0.158106308265
0.16084342063
0.163647200952
0.166507471122
0.16941277448
0.172350401502
0.175306497624
0.17826625787
0.181214200723
0.184134507516
0.187011401599
0.18982953479
0.192574342786
0.195232304449
0.197791059514
0.200239357477
0.202566669996
0.204762378676
0.206814567445
0.208708266384
0.210422826766
0.211928432029
0.213183698054
0.214135242502
0.214706779398
0.214827955672
0.188993339967
0.188482193845
0.187817131135
0.18709253952
0.186171699942
0.184998045416
0.183465514194
0.181518739779
0.179159848998
0.176434404645
0.173413651628
0.17017819071
0.166808254082
0.163377676205
0.159950816856
0.156581453306
0.153312933946
0.150179055339
0.147205284682
0.144410080854
0.141806167784
0.139401683979
0.137201178393
0.135206446782
0.13341722004
0.131831721345
0.130447108793
0.129259817751
0.128265823298
0.127460859635
0.126840580334
0.126400596751
0.126136247622
0.126042477442
0.126115617286
0.126357040564
0.126766135179
0.127337462031
0.128066013877
0.128947405673
0.12997720948
0.13115102523
0.132464487587
0.133913263613
0.135493056816
0.137199612784
0.139028721065
0.140976203972
0.143037886133
0.145209536689
0.147486780891
0.149864977529
0.152339065198
0.154903381619
0.157551468097
0.160275872542
0.163067971184
0.165917828128
0.168814114766
0.171744105711
0.174693765026
0.177647927226
0.180590570078
0.183505162405
0.18637506847
0.189183963591
0.191916251672
0.194557395338
0.197094090875
0.199514390748
0.201807499342
0.20396312839
0.205970694708
0.207818085488
0.209489353186
0.210961461235
0.212202837165
0.213173199451
0.21379772848
0.213971867166
0.18966374695
0.188925202355
0.187968641875
0.186828570193
0.18546731707
0.183851785234
0.181925363446
0.17966497932
0.17708219869
0.174218008963
0.171131943197
0.16789104199
0.164562053349
0.161206430197
0.157877769872
0.154620924764
0.151472161322
0.148459895505
0.145605687753
0.142925302512
0.140429723452
0.138126071475
0.136018405751
0.134108405001
0.132395936659
0.130879525443
0.129556731547
0.128424449265
0.127479141029
0.126717034073
0.126134266192
0.125726880562
0.12549052004
0.12542042396
0.125513920184
0.125774322973
0.126199991377
0.126783889486
0.127522073027
0.128410429965
0.129444788412
0.130620917741
0.131934549391
0.133381399751
0.134957196905
0.136657708498
0.138478763861
0.140416262914
0.142466162599
0.144624433313
0.146886978178
0.149249511989
0.151707399173
0.154255456275
0.156887729059
0.159597261143
0.162375874435
0.165213986101
0.168100485479
0.171022694534
0.173966426334
0.176916151182
0.179855271024
0.182766476102
0.185632191296
0.188435014741
0.191158211534
0.1937861587
0.196304500362
0.198700493702
0.200963045534
0.203082089349
0.205048081674
0.206851236424
0.208479639634
0.20991628345
0.211137365158
0.21211270095
0.212768646261
0.212992700976
0.189928920749
0.18884907635
0.187594502027
0.186071846595
0.18430434642
0.182291220343
0.180015896343
0.17747952115
0.174703079446
0.171725308269
0.168596100022
0.165369695573
0.162099457207
0.158834417137
0.155617474519
0.152484765335
0.149465776049
0.146583867408
0.143856986941
0.141298436522
0.138917621206
0.136720741989
0.134711415647
0.132891216014
0.131260138642
0.12981699243
0.128559721366
0.127485665672
0.126591778781
0.125874803353
0.125331379962
0.12495799035
0.124750727133
0.124705652354
0.124821346827
0.125101443036
0.125543667382
0.126140472904
0.126888500746
0.127783919181
0.128822767144
0.130000952214
0.131314281108
0.132758498585
0.134329334969
0.136022556959
0.137834014242
0.139759672372
0.141795621713
0.143938051968
0.146183183617
0.148527150078
0.150965828761
0.153494624203
0.15610821441
0.15880027819
0.161563227007
0.16438797066
0.167263743847
0.170178024665
0.173116563361
0.176063527429
0.179001793224
0.181913292424
0.184779542964
0.18758208384
0.19030303155
0.192925769001
0.195434885791
0.197816795639
0.200060151351
0.202154968263
0.204092310132
0.205863954336
0.207460814678
0.208870082748
0.210072564327
0.211046961244
0.211720797944
0.211991261019
0.189215653825
0.187972974786
0.186530621664
0.184717423197
0.18263566255
0.180312116156
0.177765832477
0.175018770612
0.172100316541
0.169047912493
0.165903882313
0.162711844833
0.159513776148
0.156348026636
0.153248264438
0.15024309966
0.147356153772
0.144606387802
0.142008564685
0.13957376819
0.137309931753
0.13522234961
0.133314151063
0.131586729173
0.130040120338
0.128673331223
0.127484610292
0.126471673684
0.125631916133
0.124962560907
0.124460709326
0.124123194827
0.123946512509
0.123928048228
0.12406875448
0.124370110396
0.124828554971
0.125438280875
0.12619616924
0.127098653493
0.128141959245
0.129322104552
0.130634938315
0.132076195477
0.133641566269
0.135326772672
0.137127643031
0.139040173856
0.141060566246
0.143185224114
0.145410702244
0.14773359564
0.150150365674
0.152657103781
0.155249243347
0.157921241223
0.160666252319
0.163475838039
0.16633973323
0.169245715604
0.172179610053
0.175125386345
0.178065520226
0.180981253337
0.183853306948
0.186662275056
0.189389124374
0.1920164757
0.194527923158
0.196908955823
0.199148073769
0.201235198952
0.203161564793
0.204919801541
0.206502432839
0.20789915244
0.2090924041
0.210068756865
0.210755188019
0.211069221423
0.187553088913
0.186276882853
0.184752049062
0.182758757399
0.18047276125
0.177942161951
0.175215700211
0.172332678838
0.16933042208
0.1662463236
0.163117443994
0.15997945097
0.156865548494
0.153805702737
0.15082621923
0.147949601178
0.145194611367
0.142576472014
0.140107155271
0.137795728966
0.135648729992
0.13367054331
0.131863767432
0.130229554565
0.128767919002
0.127478007199
0.126358325259
0.125406933255
0.124621633709
0.124000120609
0.123539972522
0.123238384386
0.123092273115
0.123100503629
0.123266663857
0.123589290513
0.124063271697
0.124685551017
0.125453042123
0.126362418372
0.127410067164
0.128592089648
0.12990434246
0.131342508686
0.132902189961
0.134579010956
0.136368725623
0.138267312542
0.140271044506
0.142376516383
0.144580615675
0.146880423684
0.149273041008
0.151755333103
0.154323604122
0.156973231236
0.159698271434
0.162491110303
0.165342161866
0.168239668976
0.171169725312
0.174116225674
0.177061465263
0.179986098878
0.182870239945
0.185693819462
0.188436618713
0.191080926109
0.193609468011
0.196006619147
0.198260923162
0.200361898567
0.202300518643
0.204069724457
0.20566245547
0.207069415378
0.208272159419
0.209263203255
0.209965635839
0.210323047736
0.185152570769
0.183893814166
0.182348497777
0.180267342946
0.17787670024
0.175235480736
0.172415264948
0.169468327375
0.16643876851
0.163364761026
0.16028013689
0.157215129724
0.154196697527
0.151248663207
0.148391790743
0.145643853933
0.143019734139
0.140531566274
0.138188938
0.135999134777
0.133967415674
0.132097302603
0.130390865976
0.128848995165
0.127471646799
0.126258064653
0.125206968021
0.124316718041
0.123585485407
0.12301139109
0.12259247227
0.122326377684
0.122210613681
0.122245133816
0.122434566935
0.122776796054
0.123266010771
0.123900188932
0.124676691847
0.12559249897
0.12664417144
0.127827874652
0.129139437201
0.130574442656
0.132128347397
0.13379661567
0.135574860868
0.137458978975
0.139445257077
0.141530437579
0.143711717927
0.145986668686
0.148353064128
0.150808615404
0.153350597874
0.1559754468
0.158678276944
0.161452473495
0.164289332619
0.167177716158
0.17010426032
0.173052871158
0.176006019732
0.178943913301
0.181846309442
0.184693042772
0.187462538673
0.190137416835
0.192699723528
0.195132336144
0.197424518473
0.19956501346
0.201544093222
0.203354858725
0.20498950651
0.206437889402
0.20767833999
0.208705821458
0.209435794838
0.209841027547
0.182190087304
0.180976535483
0.17945099369
0.177351204594
0.174934828706
0.172262480542
0.169421733565
0.166473178083
0.163465973224
0.160439283213
0.15742517335
0.154450457624
0.15153794414
0.148707201186
0.145975000427
0.143355570657
0.140860767899
0.138500230453
0.136281553479
0.134210491449
0.132291181681
0.130526376207
0.128917669177
0.127465711184
0.126170405694
0.125031084072
0.124046659823
0.123215771721
0.122536931422
0.122008646283
0.121629386202
0.121397338885
0.121310758099
0.12137043852
0.12158125927
0.121941171132
0.122444319075
0.123089366041
0.123874104553
0.124795807775
0.125851195948
0.127036473046
0.128347402179
0.129779418778
0.131327774956
0.132987706786
0.134754613052
0.1366242309
0.138592788821
0.140657114036
0.142814669377
0.145063492827
0.147402038463
0.14982891686
0.152342447274
0.154940249213
0.157618634959
0.160372137774
0.163193173829
0.166071294191
0.168994094351
0.171945467862
0.174908614489
0.177863497413
0.180789718183
0.183667914592
0.186474644203
0.189193822069
0.191807188673
0.194295497247
0.196651034996
0.198861453324
0.20091487767
0.202804679205
0.204521345362
0.206051171625
0.207367012876
0.208460890398
0.209238135424
0.209702632715
0.178813227558
0.177665827869
0.176190339562
0.174123387671
0.171740446353
0.169098157089
0.166294480457
0.163394248828
0.160449930243
0.157501482861
0.154580095613
0.151710575555
0.148913125046
0.146204488897
0.143598650603
0.141107244535
0.138739820531
0.136504050135
0.134405920711
0.132449933045
0.130639301087
0.128976146523
0.12746168114
0.126096373766
0.124880100758
0.123812280671
0.122892000132
0.122118141817
0.121489514777
0.121004949895
0.120663275367
0.120463206876
0.120403828595
0.120486684119
0.120716547719
0.121091875662
0.1216071132
0.122261522677
0.123053319337
0.12398005869
0.125038602897
0.126225167623
0.127535413316
0.128964579493
0.13050765577
0.132159581627
0.133915463865
0.135770797175
0.137721666728
0.139764904548
0.141898174159
0.144119936758
0.146429293738
0.148825796931
0.151308835306
0.153877317681
0.156528870353
0.159259239113
0.162062288842
0.164928137488
0.167846012003
0.170799589777
0.173773497214
0.176747697295
0.179701477351
0.182617404029
0.185469315145
0.188244429108
0.190925168346
0.193488675622
0.195935233079
0.198250662762
0.200416956345
0.202427906696
0.204271333765
0.205928186071
0.207366515596
0.208569206013
0.209429347285
0.209975976759
0.175159695755
0.174091241562
0.172686503174
0.170689044912
0.168381837527
0.16581424736
0.163090393684
0.160276175623
0.157425863928
0.154579805626
0.151768755414
0.149016389157
0.146341331909
0.143758502624
0.141279973897
0.138915514558
0.136672955077
0.134558465202
0.132576790188
0.130731462815
0.129024994093
0.127459040907
0.126034550663
0.124751886625
0.123610937644
0.122611216298
0.121751960436
0.121032257251
0.120451161379
0.120007753461
0.119701096976
0.119530321609
0.119495519898
0.119599405254
0.119845960617
0.120234169535
0.120759320073
0.121421275623
0.122218676602
0.123149350892
0.124210286275
0.125397685527
0.126707073279
0.12813345136
0.129671495186
0.13131578526
0.133061062012
0.134902492848
0.136835929603
0.138858117212
0.140966838552
0.143160925327
0.145440030943
0.14780469665
0.150255329541
0.1527921967
0.155414352246
0.158118644481
0.160900922687
0.163751440949
0.166662005916
0.169615608266
0.172598768576
0.175591643538
0.178572705477
0.181528131006
0.18442845651
0.187268158987
0.190032621321
0.192691439789
0.19525532233
0.197706931933
0.200020852433
0.20219248695
0.204207710737
0.206044309998
0.207666704532
0.209038915143
0.210040593922
0.210707333597
0.171351539324
0.170367133071
0.169044927632
0.16714094382
0.164937638717
0.1624753345
0.159861149629
0.157159691496
0.154425820727
0.151699781469
0.149012024628
0.146385560448
0.143838056928
0.141383255859
0.139031930058
0.136792528612
0.13467163653
0.132674326635
0.130804443203
0.129064833392
0.1274575328
0.125983908752
0.124644769606
0.123440451625
0.12237089219
0.121435695155
0.120634210537
0.11996567202
0.119429304766
0.119024346973
0.118749953122
0.118605473401
0.118592309377
0.118715772708
0.118976792621
0.119374085159
0.11990638877
0.120573602656
0.121374721023
0.122307817597
0.123369986779
0.124557394437
0.125865400203
0.127288733786
0.128821714113
0.130458509797
0.132193429702
0.134021233765
0.135937454045
0.137938654064
0.140022634173
0.142188570619
0.144436459189
0.14676792382
0.149184234041
0.151687021184
0.154276953016
0.156951594765
0.159709598566
0.162540518421
0.165439561646
0.168388279072
0.171375094224
0.174380991686
0.177383598097
0.180376813748
0.18332919188
0.186240829971
0.18910413981
0.191881643364
0.194576269289
0.197175963621
0.199667447534
0.202041808063
0.204283376899
0.206365322216
0.208244176475
0.209858642693
0.211074481188
0.211905878018
0.167488664137
0.166588323069
0.165353903819
0.163557420674
0.161474947334
0.159137162484
0.156651868014
0.15408069908
0.151478167566
0.148883909756
0.146328009208
0.143832994274
0.141415905857
0.139089702981
0.136864271316
0.134747144334
0.132744042289
0.130859288967
0.129096136328
0.127457010578
0.125943688924
0.124557416507
0.123298979552
0.122168755053
0.121166750746
0.120292645051
0.119545852153
0.118925658309
0.118431359583
0.118062270159
0.11781755961
0.117696701063
0.117702090065
0.117840820665
0.118112915839
0.118516820287
0.119053527386
0.119723428695
0.120525995483
0.121459584548
0.122521393799
0.123707532077
0.125013168293
0.126432734001
0.127960159731
0.129589164048
0.13131357603
0.133127678455
0.135026610102
0.137006670696
0.139065525026
0.14120277461
0.14341835459
0.145715171614
0.148095103247
0.150561046008
0.15311564467
0.155756418764
0.158485625175
0.161290881468
0.164170975083
0.16710569212
0.170085396044
0.1730966519
0.176114959146
0.179145161249
0.182164182908
0.185147915887
0.18809335777
0.190983081177
0.193813489185
0.196578563213
0.199271284181
0.201884339553
0.204403177417
0.206798475386
0.209017460174
0.210968265019
0.212494693935
0.213538329097
0.163649332045
0.162830066955
0.161684340414
0.160002089516
0.158048941577
0.155846171602
0.153500623513
0.151069840495
0.148607293925
0.146151545409
0.143732147573
0.141371158008
0.139085133014
0.136886472899
0.134784450138
0.132785981765
0.130896227743
0.129119056024
0.127457394641
0.125913482153
0.124489028186
0.123185299275
0.122003153783
0.120943054552
0.120005079796
0.119188943507
0.118494052303
0.117919644656
0.117464962437
0.117129285155
0.116911773333
0.11681205393
0.116833137215
0.116982855318
0.117262030617
0.117669440231
0.118207313239
0.118876868998
0.119678154013
0.120609833482
0.121669192324
0.12285225121
0.124153956883
0.125568421724
0.12708916831
0.128709442868
0.130422571874
0.132222305706
0.13410332152
0.136061621069
0.138094454734
0.14020217376
0.142383978455
0.144644410267
0.146985693849
0.149411667043
0.151927406985
0.154529151173
0.157222999684
0.15999354062
0.162842707475
0.165753815898
0.168714615237
0.171730049837
0.174769628213
0.177820316394
0.180872654188
0.183910988296
0.186928506247
0.189917222825
0.192875632841
0.195804156159
0.198703610172
0.201573132171
0.204404051206
0.207170394236
0.209816040701
0.212226704732
0.214216707857
0.215545880739
0.159893345999
0.159150441154
0.158091452055
0.156524986178
0.154703575777
0.15263984652
0.150438553761
0.148152475337
0.145833563555
0.143518908975
0.141237338845
0.139010361769
0.136854084384
0.134780467023
0.132798350812
0.13091425859
0.129133031154
0.127458320755
0.125892954306
0.124439176098
0.123098784175
0.121873180186
0.120763362647
0.119769902005
0.118892925231
0.118132123492
0.117486805093
0.116956039646
0.116538860999
0.116234359722
0.116041609278
0.115960376824
0.115994113964
0.116151067068
0.116433286877
0.116840225379
0.117375427134
0.118041104673
0.11883793166
0.119764858552
0.120819202457
0.121996840737
0.12329245042
0.124699810055
0.126212027913
0.127821866967
0.129522161943
0.131306085993
0.133167772802
0.135103018555
0.137108142006
0.139184958147
0.141331015167
0.143552871181
0.145852966434
0.148235234042
0.150707457436
0.1532629742
0.155911154288
0.158637928229
0.161441656962
0.164329670721
0.167271540228
0.170263513032
0.173292239423
0.176343481233
0.179406552295
0.182471210835
0.185532545927
0.188589059289
0.191644709711
0.194707525622
0.197787965865
0.200895417659
0.204032267028
0.207183206069
0.210298810387
0.213256570537
0.215841685853
0.217644922018
0.156265405091
0.155593175932
0.154617099498
0.153164374752
0.151472861388
0.149547555688
0.147490363952
0.145348963614
0.143173483282
0.140999231472
0.13885412935
0.1367590266
0.134729563515
0.132777320204
0.130910829223
0.129136385138
0.12745869748
0.125881392891
0.124407373052
0.123039038371
0.121778393674
0.120627058047
0.119586212936
0.118656535277
0.117838158174
0.117130673258
0.116533186004
0.116044458518
0.115663135532
0.115387923413
0.115217676128
0.11515224075
0.115195377679
0.115355564522
0.115636377923
0.116038254139
0.116566396657
0.117224217246
0.118013034558
0.11893199842
0.119978349574
0.121147741107
0.122434508984
0.123832089005
0.125333182777
0.126930053023
0.128615089654
0.13038087206
0.132220846944
0.134130958626
0.136105776618
0.138149616275
0.140257453377
0.142437797193
0.144693448649
0.147026649934
0.149447809887
0.151949521518
0.154537901888
0.157222293941
0.159979862084
0.162813952713
0.165712304496
0.168663639453
0.171655241777
0.174674679496
0.177712240147
0.180760989091
0.183818959258
0.186889571612
0.189982580195
0.193113540611
0.196302695056
0.199570387196
0.202931663294
0.206383484913
0.209876820699
0.21324360485
0.216210669156
0.218473161381
0.152797804477
0.152190172813
0.151292064094
0.149948639814
0.148382321039
0.14659160003
0.144675041307
0.142675135191
0.140640018715
0.138602994791
0.136590936511
0.134623928327
0.13271711187
0.130881717631
0.129126055516
0.127456315581
0.125877219013
0.124392510589
0.123005296962
0.121718241987
0.120533637673
0.119453373266
0.118478833887
0.117610784319
0.116849300383
0.116193777729
0.115643001351
0.115195274409
0.11484864172
0.114601171872
0.114451315875
0.114399001673
0.114448244616
0.114607306817
0.114881597811
0.115273119811
0.115789245512
0.11643484123
0.117211815774
0.118119339622
0.119154394995
0.12031231566
0.121586986467
0.122971489574
0.124458149873
0.126038680465
0.127705114797
0.129449490351
0.131264344214
0.133146438019
0.135087541978
0.137095408049
0.139161880467
0.141296133741
0.143501968833
0.145779561842
0.148138128736
0.15058670237
0.153115638823
0.155729861488
0.158424334872
0.161192549261
0.164023473733
0.166905180773
0.169825228202
0.1727718722
0.175735929524
0.178711929057
0.181699688017
0.184705340546
0.187742185899
0.19083035945
0.193996248777
0.19726578246
0.200659845258
0.204171524033
0.207699401009
0.210966595638
0.214332917727
0.218443928629
0.149512976045
0.148963809422
0.148138125956
0.146898054916
0.145450405781
0.143788292698
0.142006640136
0.140142842869
0.138242983253
0.136338217408
0.134454277463
0.132610399116
0.130821197645
0.129097573389
0.127447676284
0.125877683517
0.124392432522
0.12299588852
0.121691450903
0.120482113276
0.119370499202
0.118358792909
0.117448588661
0.11664070871
0.115935088052
0.115330797963
0.114826176673
0.114418929458
0.114106280163
0.113885331762
0.113753817275
0.113711873703
0.113764319599
0.113917834822
0.11417961866
0.114554647302
0.115053174858
0.115681848334
0.116442968338
0.117335423928
0.118355644858
0.119498562034
0.120757445242
0.122124995708
0.123593242868
0.125153253451
0.126796858073
0.128515752855
0.130301225215
0.132151530203
0.134054698957
0.136022007816
0.138042471263
0.140123921919
0.142271688251
0.144491920953
0.146789316799
0.149163229693
0.151620056312
0.154157690615
0.156770438545
0.159450224846
0.162185805846
0.164964280948
0.16777228565
0.170597318192
0.17342933669
0.176262127957
0.179094639923
0.181931965943
0.184785924983
0.187674268376
0.190620174355
0.19364077976
0.196745953157
0.199882769664
0.202799673088
0.205490052852
0.208832584924
0.215057431083
0.146425523474
0.145928893939
0.14516987494
0.144026354297
0.142689788687
0.141148978539
0.139495052911
0.137760526769
0.135989443483
0.134210744005
0.132448977111
0.130722476578
0.129045318354
0.127428090278
0.12587883028
0.124403768967
0.123007932868
0.121695574506
0.120470436928
0.11933587388
0.118294851831
0.117349852245
0.116502676247
0.115754179648
0.115104064726
0.114550925331
0.114092528069
0.113725901938
0.113447233247
0.113252236483
0.113137462926
0.113103324974
0.113156741264
0.11330012674
0.11354132205
0.113892576936
0.114367261741
0.1149740979
0.115715305172
0.116589033623
0.117590692232
0.118714794659
0.119953792396
0.121299941331
0.122745187758
0.124279857477
0.12589575916
0.127584518156
0.12933570328
0.131149229481
0.133008804561
0.134927937546
0.136896826054
0.138919700525
0.14101158016
0.143160179316
0.145383334334
0.147680442228
0.15005266684
0.152497367192
0.155007947221
0.157574524819
0.16018420422
0.162822159427
0.165472891572
0.16812153217
0.17075519873
0.173364180509
0.175942880345
0.178490277358
0.181009612629
0.183505997652
0.185983837162
0.188423949016
0.190805017605
0.193005134207
0.194618323296
0.194773748502
0.193320984828
0.19554046252
0.143544083797
0.143094371618
0.142396268322
0.141342092194
0.140108502512
0.138680951383
0.137146721854
0.135533747382
0.13388410523
0.132224514298
0.13057834347
0.128963002668
0.12739203324
0.125875731031
0.124422060015
0.123037350986
0.121726867031
0.120495187714
0.119346423662
0.118284292288
0.11731209108
0.11643258408
0.115647780559
0.11495857988
0.114364408975
0.11386322321
0.113452010477
0.113127036808
0.112883228976
0.11271446804
0.1126159148
0.112587391828
0.112635704745
0.112762530227
0.112976643565
0.113296266753
0.113740345342
0.114320374576
0.115037651808
0.115889029999
0.116868155993
0.117969263399
0.119183874237
0.120503705081
0.121920982374
0.123425220815
0.125008177408
0.126661438067
0.128372074319
0.130141212504
0.131951810193
0.133811576088
0.135732036215
0.137689094894
0.139708062644
0.141785268754
0.143927168565
0.146135311912
0.148408891683
0.150743458636
0.153130404595
0.15555736388
0.158008779582
0.160466847568
0.162912642174
0.165327229825
0.167692663715
0.169992690063
0.172213007815
0.174340830822
0.176363345128
0.178263638396
0.180014262008
0.181535492841
0.18276338671
0.183204209457
0.181169332279
0.173815924307
0.154968212294
0.0995069320645
0.140872683638
0.140464669804
0.139821907343
0.138849780233
0.137710909952
0.136388251658
0.134965269952
0.133465665708
0.131929663018
0.130381800971
0.128844310637
0.127333683719
0.125862948988
0.124442134887
0.123079163167
0.121780496248
0.120551662008
0.119397587872
0.118322758885
0.11733124168
0.116426631007
0.115611937213
0.114889375597
0.114259966002
0.113722939735
0.113275358436
0.112912726411
0.112630409046
0.112422633948
0.112281009275
0.112199352532
0.112175937154
0.11221526446
0.112318556114
0.112496719531
0.112775234651
0.113181339187
0.113729551891
0.114418751956
0.115244086612
0.116196381708
0.11726990595
0.118455417272
0.119743929195
0.121128209998
0.122596753182
0.124140468088
0.125750500805
0.127412855346
0.1291250779
0.13088927016
0.132687760036
0.134537954073
0.136430466362
0.138373419853
0.140368835916
0.142419888239
0.144527074711
0.146687436435
0.148893945906
0.151135172423
0.153395561021
0.155656039191
0.157894854518
0.160088480639
0.16221239093
0.164241520606
0.166150209795
0.167911380089
0.169494616489
0.170862759766
0.171966523552
0.172739402213
0.173082806445
0.173050753632
0.170897499928
0.164544038572
0.151360374584
0.124847268398
0.074446168211
0.138411968488
0.138040833365
0.137448089303
0.13655082711
0.135498515547
0.134272344814
0.132952046581
0.131557464629
0.130127108884
0.128683418338
0.127247558055
0.125835129462
0.124458684966
0.123128014337
0.121851024426
0.120634329178
0.119483734017
0.118404522761
0.11740155494
0.116479226182
0.115641379636
0.114891222941
0.114231191221
0.11366255591
0.113184470339
0.112792686849
0.112480018729
0.112241267243
0.11207332623
0.111961789987
0.111897957965
0.111878439073
0.111904257704
0.111976695981
0.112109668442
0.112337787217
0.112699039585
0.113210857528
0.113867329804
0.114662480081
0.115583545729
0.116624778141
0.117776582823
0.119028870579
0.120374369899
0.121799855722
0.12329557095
0.124850228282
0.126461009872
0.128116088727
0.129815283813
0.131553034593
0.133331657835
0.135149167969
0.137008996631
0.138913401803
0.14086345453
0.142857448427
0.144889744423
0.14695017101
0.149023833203
0.151091385063
0.153129604185
0.155112089262
0.157009886667
0.158791825032
0.160424321845
0.161870371454
0.16308730737
0.164022687824
0.164607163744
0.164742051747
0.164277131346
0.162963346836
0.160371501957
0.155481233584
0.146360229629
0.130976686384
0.104811345873
0.062957770961
0.136160045955
0.13582138714
0.135273643906
0.134444301084
0.133470635698
0.132332690416
0.131106593267
0.129808714775
0.128476005155
0.127128909367
0.125787619526
0.124466890435
0.12317884477
0.12193306484
0.120737467219
0.119598828201
0.118523230753
0.11751631191
0.116583307703
0.115728926439
0.114957198699
0.11427144987
0.113674320032
0.113167309237
0.112749418965
0.112415954374
0.112158096612
0.111965624315
0.111843650944
0.111760270307
0.111710145652
0.111694478509
0.111708546208
0.111748807321
0.111829797492
0.111994860793
0.112302635508
0.112773972599
0.113392678087
0.114152722288
0.115038274529
0.116042514736
0.117155274612
0.118364226636
0.119662071568
0.121032555314
0.122471734619
0.123970853312
0.125518945248
0.127113280216
0.12874669009
0.130414242303
0.132115394148
0.133849728884
0.13561865546
0.137423029936
0.139261733271
0.141130321332
0.143019957809
0.14491686969
0.14680226692
0.148652646858
0.150440316462
0.152133925224
0.153698787681
0.155096755882
0.156285368504
0.15721592579
0.157829975386
0.158053376604
0.157786499047
0.156887904187
0.155146559927
0.152231889652
0.147607473043
0.140330175933
0.128892514647
0.111400865772
0.0847257528455
0.0479975682579
0.134113270878
0.133803062483
0.133295613496
0.132527549731
0.131624949507
0.130567217748
0.129427040503
0.128217693878
0.126974729788
0.125716722065
0.124462995887
0.123227512602
0.12202201738
0.120855916512
0.119737158338
0.118672686613
0.117668848828
0.116731618887
0.115866609104
0.115078851953
0.114372518589
0.113750941579
0.113216921646
0.112772353642
0.112416875738
0.112149284993
0.111960611781
0.111807891612
0.111715695775
0.111670062443
0.111647452904
0.11165134041
0.111666227727
0.111676407714
0.111694519865
0.111767023835
0.112003619709
0.112427796812