/*--------------------------------*- C++ -*----------------------------------*\
| =========                 |                                                 |
| \\      /  F ield         | OpenFOAM: The Open Source CFD Toolbox           |
|  \\    /   O peration     | Version:  v1806                                 |
|   \\  /    A nd           | Web:      www.OpenFOAM.com                      |
|    \\/     M anipulation  |                                                 |
\*---------------------------------------------------------------------------*/
FoamFile
{
    version     2.0;
    format      ascii;
    class       volScalarField;
    location    "500";
    object      p;
}
// * * * * * * * * * * * * * * * * * * * * * * * * * * * * * * * * * * * * * //

dimensions      [0 2 -2 0 0 0 0];


internalField   nonuniform List<scalar> 
6400
(
0.18436267911
0.183961255076
0.183556207731
0.183333222616
0.183448526634
0.183336508062
0.182587258475
0.181136406055
0.1791296135
0.176624912181
0.173708118626
0.170473664593
0.16701669962
0.163426810552
0.159784136518
0.156157429055
0.152603582819
0.149168161616
0.145886515127
0.142785175364
0.139883315504
0.137194133916
0.13472608819
0.132483947567
0.130469660417
0.128683049955
0.127122359459
0.125784671543
0.124666227492
0.123762671062
0.123069231605
0.12258085039
0.122292283297
0.122198281681
0.122293949352
0.122575189528
0.123038649718
0.123679376747
0.124489465365
0.125462062928
0.126591812456
0.127872709231
0.129298690223
0.130863775404
0.132562130775
0.134388088318
0.136336139635
0.138400907184
0.140577092927
0.142859403495
0.145242451656
0.14772063574
0.150288000982
0.152938089628
0.155663789358
0.158457192219
0.161309477902
0.164210836033
0.167150441334
0.170116493155
0.173096326623
0.176076596962
0.17904353103
0.1819832317
0.184882011768
0.187726725927
0.190505057507
0.193205701212
0.195818375994
0.198333603722
0.20074215927
0.203033970622
0.205196050542
0.207209447274
0.209046875093
0.210672002004
0.212030587379
0.213020235465
0.21350185503
0.213522300055
0.184156932649
0.183731030743
0.183496418236
0.183309570202
0.183143499914
0.183133979523
0.182441257501
0.180999831712
0.178961243278
0.176411682924
0.173449554516
0.170174842707
0.166685451583
0.163071951893
0.15941432913
0.155780482013
0.152226084551
0.148795353607
0.145522328461
0.142432364611
0.139543639917
0.136868550847
0.134414936677
0.132187109937
0.130186696878
0.128413305212
0.126865043037
0.125538913749
0.1244311128
0.123537251786
0.122852527205
0.122371819154
0.122089692681
0.122000423292
0.122098466484
0.122379623673
0.12284195776
0.12348217724
0.124294166079
0.125270638106
0.126403952106
0.12768750442
0.129115050124
0.130680575335
0.132378261264
0.134202473193
0.136147746421
0.138208757411
0.14038027501
0.142657087929
0.145033907775
0.147505248006
0.150065282947
0.152707692858
0.155425505246
0.158210944178
0.161055302429
0.163948851102
0.166880801845
0.169839333411
0.172811691125
0.175784361011
0.178743314024
0.181674306405
0.184563213598
0.187396366966
0.190160854703
0.19284473102
0.195437070044
0.197927814215
0.20030732232
0.202565450307
0.204689929118
0.206663976826
0.20846381685
0.210056633647
0.211395453141
0.212404840312
0.212977534594
0.21308218771
0.184583865406
0.18402182275
0.183594694686
0.183370942137
0.182998520467
0.182504533161
0.181509640049
0.179908732044
0.177749474498
0.175110727238
0.172090577395
0.168788078561
0.165298161389
0.161707089855
0.158089991831
0.154509938266
0.151018188008
0.147655170216
0.144451848965
0.141431210676
0.13860970661
0.135998556058
0.133604868065
0.131432572972
0.129483174781
0.127756344868
0.126250380518
0.124962551911
0.123889361669
0.123026744979
0.122370223349
0.121914964417
0.121655632149
0.121586299515
0.121701826481
0.122000964262
0.122481886907
0.123137591272
0.123960737265
0.124945309667
0.126084857233
0.1273730632
0.128803771125
0.130371001164
0.132068959237
0.13389204196
0.135834831239
0.137892072722
0.140058632914
0.142329431248
0.144699344844
0.147163086112
0.149715056044
0.15234917951
0.155058732219
0.157836172324
0.160672991813
0.163559604189
0.166485284617
0.169438176487
0.172405373997
0.175373084422
0.178326866023
0.181251929815
0.184133481457
0.186957072431
0.18970892824
0.192376204906
0.194947090718
0.197410742191
0.199756951219
0.201975403818
0.204054482676
0.205979499474
0.207730187613
0.209277773832
0.210582835782
0.211589683911
0.212204488649
0.212358947205
0.185420378696
0.184783564919
0.184116555061
0.18347042991
0.182672358203
0.181640716573
0.180214574563
0.178323155476
0.175973150656
0.173220047912
0.17014516684
0.166836001223
0.163377472591
0.159846627111
0.156310218148
0.152824012925
0.149433196733
0.146173390638
0.14307194354
0.140149276528
0.137420148964
0.134894780523
0.132579805467
0.130479060021
0.128594217047
0.126925287223
0.12547100664
0.12422913125
0.123196661707
0.12237002244
0.121745192657
0.121317703303
0.121082394954
0.121033469092
0.121166820765
0.121484074852
0.121982002917
0.122651562555
0.123486553752
0.124480637151
0.12562747653
0.126920836478
0.128354613618
0.129922863287
0.131619823009
0.133439930258
0.135377829168
0.1374283602
0.139586527142
0.141847436468
0.144206205724
0.146657839693
0.149197076337
0.151818208183
0.15451488911
0.157279940314
0.160105172212
0.162981240467
0.165897555146
0.168842259464
0.17180229022
0.174763526247
0.177711021307
0.180629313942
0.183502789506
0.18631605995
0.189054332178
0.191703756527
0.194251579601
0.196686194268
0.198996984668
0.201173758007
0.20320587828
0.205081000645
0.206782842779
0.208287994211
0.209565056337
0.210573320177
0.211217987172
0.211424820662
0.186314466425
0.185473801892
0.184460192989
0.183320400332
0.182010911689
0.180471407873
0.178610044763
0.176387647632
0.173811371774
0.170924461655
0.167791258362
0.164483385361
0.161071417735
0.157619821818
0.154184641658
0.150812853434
0.147542712109
0.144404608323
0.141422129773
0.138613145552
0.135990816313
0.133564486047
0.13134044174
0.129322544212
0.12751274138
0.125911477354
0.124518010675
0.123330658511
0.122346993056
0.121564002094
0.120978168065
0.120585341952
0.120380538658
0.120358661492
0.120517293503
0.120858244418
0.121376960195
0.122063740034
0.122912992616
0.123918612994
0.12507443804
0.126374324479
0.127812212682
0.129382176418
0.131078465529
0.132895540798
0.134828096773
0.13687106672
0.139019603177
0.141269027917
0.143614746235
0.146052122738
0.148576319132
0.151182099001
0.153863609529
0.156614155427
0.159425983831
0.162290100364
0.165196139129
0.168132307158
0.171085416886
0.174041019928
0.176983633469
0.179897062837
0.182764790683
0.185570401045
0.188297959995
0.190932530795
0.193460337006
0.195868911961
0.19814718581
0.200285030959
0.202272603469
0.204099479395
0.205752933068
0.207214632209
0.208459078435
0.209460818811
0.210118103425
0.210374956147
0.18682820005
0.185600765054
0.184251241284
0.182677777551
0.180906560759
0.178917182388
0.176668820304
0.174147259304
0.17136598953
0.168361973665
0.165186252379
0.161895263501
0.158544800166
0.155186191348
0.151864458512
0.148617749609
0.145477539626
0.14246922366
0.139612870048
0.136924000371
0.134414326902
0.132092415183
0.129964259595
0.128033770942
0.126303180708
0.124773368066
0.123444116336
0.122314312574
0.121382118736
0.120645119092
0.120100332409
0.119743922335
0.119571133948
0.119578350954
0.119766677123
0.120133907585
0.120673259739
0.12137827438
0.122242907086
0.123261083514
0.124426700127
0.125733657083
0.127175911128
0.128747533351
0.130442766532
0.132256077426
0.134182198299
0.136216150726
0.138353243745
0.140589038269
0.142919270598
0.145339729938
0.14784608843
0.15043368761
0.153097291246
0.15583082132
0.158627099797
0.161477617156
0.164372355206
0.167299693521
0.170246406248
0.173197785994
0.176137859109
0.179049730123
0.181915991387
0.184719250032
0.187442395842
0.190069458454
0.192585692962
0.194977750478
0.197234123176
0.199344682977
0.201300093063
0.203091216708
0.204707937191
0.20613608359
0.207352079556
0.208347094592
0.209007454483
0.209310731344
0.186204374697
0.184832144542
0.183296642952
0.181409607258
0.179289284245
0.176951727978
0.174400921642
0.171646158768
0.168708761594
0.165622407696
0.162428348746
0.159170608294
0.155892311475
0.152633286466
0.14942884231
0.146309346061
0.143300297912
0.140422676036
0.137693407535
0.135125880756
0.132730451144
0.130514913892
0.128484928594
0.126644388908
0.124995735166
0.123540210117
0.122278060177
0.121208693663
0.120330823392
0.119642591041
0.119141527182
0.118824185023
0.11868623851
0.118725224107
0.118943847282
0.119338564256
0.119900971483
0.120625624159
0.121506741865
0.122538411915
0.123714613179
0.125029274171
0.126476340758
0.128049849288
0.129744001309
0.131553235487
0.133472290739
0.135496252654
0.137620573643
0.139841056439
0.142153791218
0.144555038383
0.14704105253
0.14960785019
0.152250931101
0.15496497028
0.15774351203
0.160578685119
0.163460966691
0.166379055099
0.169319812301
0.172268396721
0.175208445146
0.178122472938
0.180992228413
0.183799534243
0.186526074345
0.189154981704
0.191670701041
0.194058976743
0.196307908888
0.198407276604
0.200347941096
0.202121455719
0.203719151048
0.205130366317
0.206329291561
0.207324655385
0.20798628572
0.208332581415
0.184543096672
0.183171327319
0.181569439073
0.179497618742
0.177155907096
0.174587661902
0.171833665177
0.168924049429
0.165889095267
0.162761869908
0.159577219241
0.156370055498
0.153173762344
0.150019070655
0.146933445362
0.143940848777
0.14106176043
0.138313355622
0.135709777189
0.133262455979
0.130980448558
0.128870768853
0.126938696801
0.125188053043
0.123621433453
0.122240400753
0.121045634679
0.120037051316
0.119213911841
0.118574908762
0.118118097632
0.117840577154
0.1177387357
0.117811006579
0.118060482432
0.118482930055
0.11906909151
0.119814097725
0.120712410177
0.121758257628
0.122945680825
0.124268611585
0.125720955681
0.127296681429
0.128989912123
0.130795018829
0.132706707529
0.134720091879
0.13683074013
0.139034683114
0.141328370413
0.143708563669
0.146172157677
0.148715929751
0.151336229207
0.154028617841
0.156787512935
0.159605851636
0.162474767537
0.165383463355
0.16831904282
0.171266716112
0.174209866272
0.177130647699
0.180009987733
0.182829362582
0.185569207804
0.188211992392
0.190741649872
0.193142914863
0.195403576311
0.197513152789
0.199462314596
0.201242850371
0.202846247046
0.204264724581
0.205466812928
0.206477693435
0.207147053771
0.207535413363
0.182117681306
0.180784414473
0.179174120418
0.177016542201
0.174563331486
0.171871030374
0.169007883753
0.166019975347
0.16294589172
0.159819737397
0.156672737915
0.1535337444
0.150429260326
0.147383341755
0.144417513003
0.141550734975
0.13879944157
0.13617764309
0.133697088237
0.131367469372
0.129196651875
0.127190908104
0.125355139436
0.123693074704
0.122207437725
0.120900080609
0.119772086421
0.118823853858
0.118055171381
0.117465247873
0.117052607204
0.116814909549
0.116749456624
0.116855549441
0.117135874215
0.11758579531
0.118195725231
0.118961241187
0.119877012347
0.120937375653
0.122136403524
0.123468000665
0.124926000064
0.126504265243
0.128196799397
0.12999785927
0.131902068107
0.13390451813
0.136000849316
0.13818728801
0.140460628267
0.14281814289
0.145257406975
0.147776027901
0.150371308513
0.153039824588
0.155777007645
0.158576793314
0.161431122575
0.164329934286
0.167260721928
0.170209010995
0.17315804731
0.17609006788
0.178985080703
0.181825045915
0.184589059115
0.18725920067
0.189819410247
0.192253115965
0.194548135455
0.19669369089
0.198679778808
0.200498189808
0.202139378116
0.203597012903
0.204831909847
0.205881017271
0.206572269233
0.207006517539
0.179111539372
0.177835808152
0.176253165057
0.174080834666
0.171599966858
0.168869327381
0.165975832332
0.16297594472
0.159914705294
0.156827770098
0.153744630652
0.150690468902
0.147687287676
0.144754544969
0.141909487289
0.139167320464
0.136541317877
0.134042925008
0.131681887056
0.12946640279
0.12740329462
0.125498179919
0.123755630122
0.122179308128
0.120772078022
0.119536084981
0.118472812716
0.117583137874
0.116867372981
0.116325221851
0.115955574629
0.115756523768
0.115726602869
0.115866764147
0.116177831393
0.116654488255
0.117287871286
0.118073833295
0.11900718561
0.120082322672
0.121293314252
0.122634010088
0.124098142532
0.125679437983
0.127371739994
0.129169143231
0.13106613311
0.133057721034
0.135139560038
0.137308021203
0.139560206037
0.141893883875
0.144307329709
0.146799025205
0.149367314143
0.152009904777
0.154723342794
0.15750278714
0.160341071343
0.163229169772
0.166155045705
0.169104944477
0.172061987664
0.175009316065
0.177925627877
0.180794617864
0.183593825679
0.186305102045
0.188913437765
0.191400418419
0.193755172379
0.195967212022
0.198024701247
0.199918889332
0.201638311009
0.203175020796
0.204482257565
0.205599141112
0.20633344909
0.206824729758
0.175669015532
0.174468821361
0.17294277209
0.170807910308
0.168361065231
0.165656992953
0.162794514802
0.159835656961
0.156829862035
0.153814170612
0.15081742205
0.147862770174
0.144969466154
0.142153958715
0.139430530735
0.136811653712
0.134308199812
0.131929598504
0.129683981317
0.127578327879
0.125618609957
0.123809923973
0.122156603457
0.120662306321
0.119330074206
0.118162364266
0.117161064747
0.116327519949
0.115662549009
0.115166321934
0.114838006754
0.114675985035
0.114680373387
0.114855346285
0.115196855872
0.115697914092
0.116353809748
0.117159729395
0.118110436468
0.119200301151
0.120423354872
0.121773371186
0.123243962444
0.12482869357
0.126521215021
0.128315414541
0.130205583386
0.132186586705
0.134254019871
0.136404331832
0.138634872755
0.140943864146
0.143330282009
0.145793492877
0.148332941006
0.150947592356
0.153635098435
0.156392148541
0.159212394743
0.162088278841
0.165008166818
0.16795967958
0.170925581627
0.173891132239
0.176832810429
0.179737467656
0.182580945275
0.185345031672
0.188018201234
0.190579168339
0.193020879803
0.195334455237
0.197503292278
0.199516701557
0.201361047842
0.203022642831
0.204451355944
0.205676527161
0.206486466979
0.207058425735
0.171929810623
0.170816160715
0.169366563153
0.167306019908
0.164936795519
0.162306133688
0.159519858285
0.156641880449
0.153724256492
0.150804937292
0.147912615913
0.14506941624
0.142292999215
0.139597918713
0.136996461848
0.134499158157
0.132115105072
0.129852201913
0.127717339636
0.125716563526
0.123855210549
0.122138017669
0.120569198543
0.119152488853
0.117891161908
0.116788018415
0.115845365015
0.115065009414
0.114448251958
0.113995707882
0.113706889746
0.113580579108
0.113617843208
0.113823777827
0.114193687171
0.114719558877
0.115397552625
0.116222979163
0.117190670769
0.11829501248
0.119530008819
0.120889361093
0.122366560212
0.123955000173
0.12564811733
0.127439557109
0.129323365145
0.131294195581
0.133347507799
0.135479749971
0.137688447265
0.139972188846
0.142330642539
0.144764029912
0.147272892364
0.149857641883
0.152516797314
0.15524907207
0.158048591475
0.160909922587
0.163821532178
0.166773267124
0.169746888324
0.172730874232
0.175698247118
0.178640838099
0.181533710637
0.184358765373
0.187112704477
0.18976918394
0.192324542365
0.194771984858
0.197088723962
0.199262231633
0.201278629539
0.203118513778
0.204731137652
0.206125415405
0.207062898396
0.207760460484
0.168019547804
0.166995810595
0.165633352058
0.163670718054
0.161407717676
0.158882205603
0.156203425696
0.153434473546
0.150628576613
0.147824007419
0.145049444044
0.142326501946
0.13967195007
0.137099173281
0.134619138527
0.132241026092
0.12997266192
0.127820834269
0.125791537677
0.123890161732
0.122121630094
0.120490491866
0.11900096895
0.117656965254
0.116462044189
0.115419382807
0.114531719678
0.113801320085
0.113229933662
0.112818593967
0.112567240711
0.112475192758
0.112544086231
0.11277895759
0.113175393936
0.11372495446
0.11442406589
0.115268130042
0.116252037696
0.117370196372
0.118616596742
0.119984882883
0.121468437177
0.123060488479
0.124754252849
0.126543111727
0.128420822507
0.130381772151
0.132421203536
0.134535478449
0.136722227993
0.138980263151
0.141309937593
0.143712262755
0.146188731608
0.148741581325
0.151369570396
0.15407425278
0.156849543596
0.159692923803
0.162592374231
0.165540436822
0.168517138294
0.171514722174
0.174502582873
0.17748067131
0.180427950601
0.183321594857
0.186170547606
0.18894521894
0.191633536388
0.194230976363
0.196723890558
0.199100744047
0.20134509109
0.20343143805
0.205305001296
0.206944653908
0.208083415068
0.208971988285
0.164040620829
0.163105388394
0.161834247399
0.159982843089
0.157842859298
0.155442148862
0.152890803434
0.15024919516
0.14757060738
0.144893033589
0.142245045299
0.139647949347
0.137117991215
0.134667825233
0.132307549723
0.130045428443
0.127888413577
0.125842537153
0.123913205628
0.122105413509
0.120423884398
0.118873147081
0.117457556424
0.116181270261
0.11504819324
0.114061900994
0.113225564958
0.112541891565
0.112013036718
0.111640385955
0.111424295104
0.111364706226
0.111463713894
0.111725890683
0.112147392759
0.112719326872
0.113438295372
0.114299781699
0.115298737369
0.116429606205
0.117686386881
0.119062693053
0.120551825693
0.122146870201
0.123840831492
0.125626823995
0.127498284014
0.129449293762
0.131474805553
0.13357099781
0.135735586158
0.137967361156
0.140267370025
0.142637365978
0.145079369386
0.147598202008
0.150191746785
0.152865472844
0.15561214801
0.158432407204
0.161313244
0.164249389197
0.167219736403
0.170221876655
0.173226432602
0.176236965176
0.179249791609
0.182219997904
0.185154451381
0.188038826444
0.190865329194
0.193629955147
0.196325713794
0.198943904191
0.201468869188
0.203871445779
0.206092519431
0.208074725383
0.209529387502
0.210725799557
0.160072950928
0.15922221755
0.158042417968
0.156308190172
0.154299271242
0.152033805548
0.149620954606
0.147117109646
0.144574792475
0.142031169579
0.13951450432
0.137045799385
0.134640931358
0.132312067104
0.13006872862
0.127918575785
0.125867999162
0.123922570541
0.122087376525
0.120367248802
0.118766902225
0.117290993621
0.115944117
0.114730751219
0.11365517459
0.112721364584
0.111932908804
0.111292928852
0.11080393811
0.110467550126
0.110284399964
0.110255284847
0.110383261061
0.110671433958
0.111116407328
0.111709100503
0.112446311971
0.113323605526
0.114335990612
0.11547795896
0.116743541684
0.118126355682
0.119619657564
0.121216424763
0.12290947067
0.124691664357
0.126556091508
0.12849651955
0.130507555346
0.132585053988
0.134726915959
0.136931535973
0.139200671115
0.141536909537
0.14394196093
0.146424427796
0.148979826386
0.151618211881
0.154330472739
0.157119233122
0.159971316553
0.162884151303
0.165839104946
0.16883762053
0.171871278815
0.174907343529
0.17794980669
0.180977332948
0.183986349781
0.186970964219
0.189928758629
0.192860787966
0.195767808264
0.19864793734
0.201490668382
0.204268102391
0.206919585478
0.209354495989
0.211285983681
0.21295114993
0.156177970637
0.155406256903
0.154315096304
0.15269881144
0.150822768792
0.148696233104
0.14642624281
0.144064460804
0.14166208559
0.13925499788
0.136870920365
0.134530455381
0.132249141135
0.130038778073
0.127908497801
0.125865581956
0.123916102528
0.122065412098
0.120318500537
0.118680230099
0.117155462934
0.115749099227
0.114466047179
0.113311145089
0.112289052258
0.111404130234
0.110660348777
0.110061206863
0.109609523633
0.109306998118
0.109154350012
0.109153724499
0.109310833097
0.109624389371
0.110090108691
0.110701522706
0.111455021505
0.112346147466
0.113369931073
0.114520913982
0.115793182654
0.117180394381
0.118675802421
0.120272327233
0.121962607399
0.123739326943
0.12559517967
0.127523635072
0.129518949174
0.13157639972
0.133694392354
0.135870419579
0.138106925791
0.140407716536
0.142772913424
0.145216077319
0.147728936264
0.150325373059
0.15299498148
0.155741287923
0.158554548992
0.161435980769
0.164381913016
0.167363122391
0.170383508968
0.173424011617
0.176478054901
0.179534880485
0.182591146313
0.185647015166
0.188706941231
0.191779714204
0.194875942242
0.198004425881
0.20116469255
0.204336397512
0.207461900345
0.210422109477
0.212935181444
0.215091319388
0.152402116497
0.151703146203
0.15069613968
0.149194985998
0.147449299513
0.145460560624
0.143332903967
0.141112894981
0.138850052038
0.136578613593
0.134325547224
0.132110922575
0.129949909683
0.12785399492
0.12583203833
0.12389110717
0.12203714217
0.120275467228
0.118611152229
0.117049240262
0.115594856762
0.11425322388
0.113029606298
0.111929212108
0.110957066906
0.110117883946
0.109415969147
0.108855143949
0.108438480532
0.10816773333
0.108043701684
0.108069782767
0.108253853425
0.108591319035
0.109075975845
0.109704163959
0.110471866045
0.111374598782
0.112407416523
0.11356492387
0.114841286258
0.116230242689
0.11772507716
0.119318731332
0.121003652581
0.122772465019
0.12461739309
0.126531635555
0.128509207335
0.130544351017
0.132636589012
0.134781973748
0.136983435606
0.139246580043
0.141568385495
0.143967798501
0.146432221151
0.148977318398
0.151596102637
0.154291710169
0.157070723915
0.159905431816
0.162805016624
0.165751388121
0.168736943544
0.171749436509
0.174781019555
0.177825692139
0.180882884177
0.183957704473
0.187061350464
0.190211111629
0.193428497317
0.196735166935
0.200143777216
0.203646057947
0.207184310518
0.210589897349
0.213572638605
0.21607539004
0.148779624028
0.148146817294
0.14721841229
0.145827208093
0.14420646106
0.142351061487
0.140361749955
0.138279897045
0.136153141571
0.134013823952
0.131887986173
0.129795036082
0.127749726317
0.125763247853
0.123844267065
0.121999755747
0.120235663619
0.118557428288
0.116970328041
0.115479689513
0.114090971854
0.112809755731
0.111641667556
0.110592265019
0.109666903105
0.108870603337
0.108207960707
0.107683061079
0.107299190732
0.10705827107
0.106961423011
0.107012786041
0.107220301429
0.107579184939
0.108081663677
0.108724751087
0.109504480162
0.11041640989
0.111455646866
0.112616877528
0.113894360491
0.115281969299
0.116773018864
0.118360611255
0.120036894239
0.121794656744
0.123625525638
0.125522425683
0.127479462394
0.129489152333
0.131552934256
0.133665019874
0.135828193661
0.138050367136
0.140323835661
0.142672133132
0.145083152764
0.14756727944
0.150140483507
0.152773745792
0.155486360101
0.158262801279
0.161098098885
0.163980101536
0.166898518582
0.169842868539
0.172805363467
0.175781775652
0.178773406478
0.181788330082
0.184842225896
0.18795864441
0.191167598788
0.194501112692
0.197981737314
0.201607021378
0.20528069366
0.208743340499
0.212209556535
0.216129453847
0.145334981454
0.144761793408
0.143905897918
0.142617997519
0.141114950651
0.139386246053
0.137528946647
0.135579321731
0.133583049296
0.13157040761
0.12956639661
0.127589657169
0.125654478928
0.123771762842
0.121950033983
0.120196252531
0.118516475376
0.116916349454
0.115401440724
0.113977413069
0.112650083484
0.111425386693
0.110309282757
0.109307634768
0.108426076447
0.107669892227
0.107043931147
0.106552503768
0.106199079525
0.105985867983
0.105914613341
0.105989974711
0.106218787908
0.106596836338
0.107115138538
0.10777097124
0.108560381029
0.109478942878
0.110521804424
0.111683746174
0.112959099675
0.114341963932
0.115825590556
0.117403507868
0.119067278851
0.12081021113
0.12262318725
0.124498776727
0.126431782239
0.128412159798
0.130443852147
0.13251907333
0.134639175076
0.136814938275
0.139036130825
0.141322295133
0.143686781035
0.14610411697
0.148601802766
0.151167349591
0.153801867225
0.156496367363
0.159241932848
0.162026882188
0.164839301564
0.167667919414
0.170503811162
0.173341842021
0.176182262844
0.179032078968
0.18190606607
0.184827190184
0.187825431741
0.190932703254
0.194167551595
0.197503523228
0.20071516934
0.20375218712
0.207349800432
0.213432541939
0.142085059677
0.141565192047
0.14077554071
0.139583493042
0.138189872018
0.136579883056
0.134846775204
0.133021940016
0.131149100068
0.1292563863
0.127367694248
0.125500824468
0.123669572268
0.121884550734
0.120154178637
0.118485459218
0.116884616887
0.115357560347
0.113910177621
0.112548480681
0.111278631197
0.110106884787
0.109039489173
0.10808256219
0.107241968751
0.106523221342
0.105931408747
0.105471049413
0.105145725763
0.10495792022
0.10491036111
0.105008486256
0.105256641464
0.105651716905
0.106183695498
0.106849999444
0.107646646583
0.108569185515
0.109612766723
0.110772302658
0.112042094311
0.113416660573
0.114888894545
0.116453232941
0.118100140735
0.119823919857
0.121614672544
0.123464372359
0.125369168036
0.127315609653
0.129310142139
0.131343429411
0.133414763281
0.135535423856
0.137710375411
0.139933218905
0.142222178258
0.144571382335
0.146988137365
0.149467919278
0.152006539054
0.154595136184
0.157222312852
0.159874525387
0.16253739952
0.165196959426
0.167840969635
0.170460177038
0.173049415252
0.175608392941
0.178141951448
0.180659427954
0.183172181372
0.185686914173
0.188188619472
0.190593342019
0.192544011801
0.193677705807
0.194078225922
0.197701358105
0.139040883191
0.138568402039
0.137838797876
0.136734811628
0.135441870382
0.133941907832
0.132324328169
0.130615952421
0.128858614664
0.127078278019
0.125297719514
0.123533857897
0.121799979842
0.120106413257
0.118461492302
0.116872293002
0.115345234564
0.113886502639
0.112502304352
0.111198977014
0.109982987022
0.108860859547
0.107839074642
0.106923952405
0.106121543485
0.105437554649
0.104877302167
0.104445502058
0.10414573534
0.103980603643
0.103954476401
0.104075105915
0.104341355245
0.104750746093
0.105294046265
0.105968425626
0.106769797098
0.107693622858
0.108734955598
0.109888965688
0.111149638516
0.11251231473
0.11396892397
0.115515572424
0.117141011011
0.118840980023
0.120604993074
0.122423834093
0.124295314101
0.126201914024
0.128152100741
0.130137731349
0.132159943775
0.134226513504
0.136333577891
0.138489955984
0.140702013422
0.142969507676
0.145293925606
0.147671321032
0.150094518375
0.15255244825
0.155030816161
0.157512895768
0.159980550953
0.162415271765
0.164799095319
0.167115238228
0.169348244242
0.171483333103
0.173504421825
0.175389828242
0.177103555509
0.178577374831
0.179672382173
0.180082324531
0.179146903407
0.174320171326
0.158260708458
0.103248867929
0.136209041267
0.135778437085
0.135102907346
0.13407917228
0.132878086215
0.131479199724
0.129968116651
0.128367443741
0.126717235162
0.125041316134
0.123361370631
0.121693421639
0.120050248462
0.118441897537
0.116876629058
0.115361600502
0.113903425834
0.112508553167
0.111183477648
0.10993481582
0.108769282303
0.10769361124
0.106714456888
0.10583829162
0.105071313535
0.104419397332
0.103888073669
0.103482256624
0.103205510817
0.103060534952
0.103053743633
0.10319628532
0.103480012734
0.103900060444
0.104452168483
0.105132206787
0.105935780698
0.10685824108
0.107894303255
0.109039729896
0.11028760019
0.11163479602
0.11307143513
0.114596196405
0.116195744508
0.117867171254
0.119599700743
0.121381733508
0.123212821249
0.12507440013
0.126972466043
0.128913457031
0.130875390187
0.132876596373
0.134915665428
0.136996909758
0.139124472328
0.141298777639
0.143518173404
0.145776731923
0.148064310257
0.150366616406
0.152665678418
0.154940565626
0.157168179994
0.159323926207
0.16138205178
0.163315403116
0.165094244946
0.166683576074
0.168037943445
0.169091876539
0.169742167745
0.169814080054
0.16899401169
0.166687116536
0.161730625981
0.151382582131
0.127385232889
0.0765829744684
0.133592804101
0.133199011548
0.132571902049
0.131620804031
0.130502936161
0.129196227784
0.127782581451
0.126280769277
0.124729200592
0.12314962986
0.121562703628
0.119983556662
0.118424474508
0.116895226161
0.115403999372
0.113958025159
0.112564091887
0.111228875316
0.109959110742
0.108761637225
0.107643358139
0.106611160701
0.10567182601
0.104831943362
0.104097837496
0.103475538677
0.10297076367
0.102588596141
0.102332741886
0.102206369027
0.10221706648
0.102375464752
0.102673651114
0.103104036201
0.103663242132
0.10434678717
0.105150082261
0.106068609349
0.107096261867
0.108230090361
0.109461389211
0.110789568324
0.112202232492
0.113701073933
0.115270707496
0.116908266607
0.118602996946
0.120341259252
0.122121549178
0.123941440459
0.125784285683
0.127661742587
0.129563893324
0.131495774038
0.133459268069
0.135457235765
0.13749177986
0.139561906982
0.141663171861
0.143786687366
0.145918853145
0.148041507359
0.150132358822
0.152165566823
0.154112262067
0.155940780407
0.157616347718
0.159099882222
0.160345432283
0.161295477082
0.161872765167
0.161966319474
0.161407205735
0.159925789093
0.157074305722
0.152085307002
0.143601951638
0.129240030782
0.103963685705
0.0626540231258
0.131192988643
0.130831382771
0.130247409594
0.129361667578
0.128318740255
0.127095575069
0.125770511985
0.124358873008
0.122897572897
0.121406388269
0.119905005325
0.118407693477
0.116926267014
0.115470220999
0.114047665099
0.112665883746
0.111331805315
0.110052285232
0.108834240694
0.107684669287
0.106610597872
0.105619003113
0.104716731237
0.103910427605
0.103206487468
0.102611051145
0.102129971468
0.101768468665
0.10153063961
0.101420819346
0.101447680305
0.101619307415
0.101929439415
0.102368304565
0.102932641949
0.103617477793
0.104417854548
0.105329898901
0.1063458469
0.107465112601
0.108676395595
0.109982297602
0.111367738841
0.112836433118
0.114371157033
0.115967188635
0.117614771504
0.119306621973
0.121036497744
0.122797917377
0.124585428503
0.12639797688
0.128231699205
0.130088105229
0.131968972548
0.133875788457
0.13580850303
0.137763797807
0.139734166441
0.141707228356
0.1436655004
0.14558657194
0.147443501268
0.149205245658
0.150836902295
0.152299509989
0.153549121262
0.154534770824
0.15519480331
0.155450724614
0.155197213033
0.154286013353
0.152499851305
0.149509939061
0.144806027187
0.13758395589
0.126555330145
0.109733244256
0.0835662922492
0.04733100908
0.129008629225
0.128675005424
0.128129276025
0.12730202171
0.126326218496
0.125178357192
0.123933383014
0.12260354416
0.121224418256
0.11981391329
0.118390846297
0.116968654126
0.115558708238
0.114170232247
0.112811246979
0.111489062007
0.110210702755
0.108983148954
0.107813436052
0.106708652169
0.105675878084
0.104722110184
0.103854190346
0.103078751563
0.102402201936
0.101830768404
0.101370441079
0.101026528182
0.100803584908
0.100707862438
0.100749715653
0.100932399993
0.101252714122
0.101698140316
0.102265529564
0.102949352158