/*--------------------------------*- C++ -*----------------------------------*\
| =========                 |                                                 |
| \\      /  F ield         | OpenFOAM: The Open Source CFD Toolbox           |
|  \\    /   O peration     | Version:  v1806                                 |
|   \\  /    A nd           | Web:      www.OpenFOAM.com                      |
|    \\/     M anipulation  |                                                 |
\*---------------------------------------------------------------------------*/
FoamFile
{
    version     2.0;
    format      ascii;
    class       volScalarField;
    location    "500";
    object      pa;
}
// * * * * * * * * * * * * * * * * * * * * * * * * * * * * * * * * * * * * * //

dimensions      [0 2 -2 0 0 0 0];


internalField   nonuniform List<scalar> 
6400
(
-0.0788423071599
-0.0843213565126
-0.0865176657802
-0.0871060216309
-0.0578080406551
-0.0256697872529
0.0164178022838
0.0788020547346
0.154617198972
0.230589298484
0.298593838381
0.356129002213
0.402932868791
0.439162570012
0.46521246987
0.481853188534
0.490154131901
0.491298490021
0.486441216767
0.476645060157
0.462855893555
0.445897898009
0.426473784939
0.405174472845
0.382490083041
0.358825767524
0.334514788979
0.309833485513
0.28501252063
0.260249879684
0.235721865162
0.211604100816
0.188112279003
0.165593962618
0.144500679251
0.124400004364
0.09985842093
0.0600567934962
0.00477824497376
-0.0614037443095
-0.133653448608
-0.209104417217
-0.286428371373
-0.364897257891
-0.443884959511
-0.522776872787
-0.600989369223
-0.677970485387
-0.7531770749
-0.82605891303
-0.896049737255
-0.96256691881
-1.02501146106
-1.08277398529
-1.13524332368
-1.18182351242
-1.22195533521
-1.25514607512
-1.28100241369
-1.29926760986
-1.30985620172
-1.3128852499
-1.30869468218
-1.2978558712
-1.28116260669
-1.25960677235
-1.23433521732
-1.20659651401
-1.17766810758
-1.1487920507
-1.1210550397
-1.09536056268
-1.0721088185
-1.05148807826
-1.03218083658
-1.01412780143
-0.992471989813
-0.975108714977
-0.948064676449
-0.97103502183
-0.124889275214
-0.147609066418
-0.140118185765
-0.114068936515
-0.0521365966293
0.0890413324099
0.271917951849
0.512125806638
0.810787652254
1.15329238719
1.52481470774
1.91471317113
2.31476340139
2.71775722777
3.11745329768
3.50882194124
3.88803372704
4.25226379609
4.59948040609
4.9282813383
5.23776304104
5.52741279378
5.79701325647
6.04656736885
6.27623453769
6.48628460474
6.67705754336
6.84893684023
7.00232470904
7.13762843224
7.25524629602
7.35555539121
7.43889339736
7.50556814174
7.55650922854
7.59628040321
7.64079068405
7.69590465725
7.7467550642
7.78338235656
7.80355274327
7.80728407396
7.79427420097
7.76384896621
7.71528609145
7.64791773624
7.56111567721
7.45427967326
7.32685650994
7.17836831412
7.00844547086
6.81685859369
6.60355817881
6.36871720565
6.1127815619
5.83652086855
5.54108106078
5.22802902166
4.89938638305
4.55764123377
4.20573299686
3.8470017483
3.48510084693
3.12387195211
2.76718976868
2.41878500844
2.08206130752
1.7599168181
1.45459317919
1.16754209732
0.899369065709
0.649730473913
0.417539798752
0.200626323101
-0.00276956738465
-0.196470611121
-0.376495517635
-0.54986761621
-0.662084292831
-0.799904030868
-0.19511632434
-0.176693814696
-0.152396871871
-0.109329602651
-0.0470501291201
0.0342487961838
0.14027650142
0.278001076044
0.44407906473
0.626985783058
0.815701674137
1.00268736658
1.18272779508
1.35182773315
1.50701337059
1.64636119886
1.7688765451
1.87426906261
1.96274362619
2.03484284897
2.0913325039
2.13311253072
2.16114988637
2.1764277672
2.17991160755
2.17252538675
2.15513861321
2.12855830734
2.0935274301
2.05072609131
2.00077502813
1.94424598283
1.88163251027
1.81320990072
1.73793447458
1.65085637876
1.54290288971
1.4287894152
1.31884614925
1.21402558364
1.11271082911
1.01459626382
0.92033783
0.83076803143
0.746677298192
0.668812040095
0.597851050315
0.534354283573
0.47871578449
0.431131432623
0.391572539584
0.359765053639
0.335171719907
0.316982990067
0.304115833567
0.295226872496
0.288740014006
0.282895093253
0.275816899974
0.26560760045
0.250457117485
0.228767259043
0.199277207889
0.16117933429
0.114209855166
0.0587029732585
-0.00440010419604
-0.0735936710895
-0.146889577771
-0.221964536264
-0.296289866711
-0.367454341193
-0.433163863293
-0.492336526074
-0.543549422504
-0.590337452443
-0.625702922634
-0.666879597991
-0.624066437675
-0.724219494078
-0.354481543228
-0.186240642088
-0.198936199462
-0.193619048865
-0.0918324786082
0.0365377956826
0.175207045223
0.334827848936
0.515177940984
0.708603318501
0.908635874498
1.11128278104
1.31370284614
1.51355580418
1.70899005054
1.89867991937
2.0817495115
2.25765238789
2.42606739585
2.58682650827
2.73986387072
2.88518064591
3.02281830324
3.15284165156
3.2753264038
3.39035317708
3.49800264034
3.59835456309
3.69148568573
3.77747022239
3.8563750947
3.92825960935
3.99317141297
4.05130705483
4.10352256228
4.15241977305
4.19271086992
4.21590238913
4.22538325371
4.22327669527
4.20849314359
4.17981497334
4.13685475923
4.07960684723
4.00813337593
3.92256956238
3.82319753765
3.71047808683
3.58505867279
3.44777651061
3.29966197782
3.14193297347
2.97598080801
2.80334253102
2.62566263005
2.44463983588
2.26196313314
2.07923630905
1.89789946417
1.71915251204
1.54389337977
1.37267904136
1.20572103248
1.04291893008
0.883934530648
0.728298481006
0.575542868809
0.42533892636
0.277644682585
0.132810892164
-0.00825177522398
-0.14412460656
-0.272427842278
-0.390831480027
-0.494327710728
-0.582833868588
-0.639373553058
-0.686939088916
-0.587453963907
-0.715925767476
-0.556560852798
-0.0667927491491
-0.184605168782
-0.169458759337
0.0206797614543
0.19525725318
0.339132905227
0.483876008374
0.63543350692
0.789326578983
0.943113042079
1.09585961253
1.24638228899
1.39317250363
1.53476509601
1.66990118877
1.79754225466
1.91685194612
2.02717882534
2.12803784427
2.21909095331
2.30012614843
2.37103783958
2.43180731818
2.48248589753
2.52317877234
2.55403191625
2.57521935514
2.58693347306
2.5893740775
2.582742492
2.56722487796
2.54299275452
2.51006780281
2.46822874007
2.41674446697
2.36325569011
2.30921179391
2.25558272794
2.20358172605
2.15329595856
2.10435430242
2.05659600525
2.00999097897
1.9644106164
1.9195666603
1.87503936815
1.83030206181
1.78473224916
1.73763014842
1.6882492527
1.6358375985
1.57968380604
1.51916704729
1.45380612272
1.38330501676
1.30758780193
1.22681839847
1.14139826834
1.05193959208
0.959212227958
0.864069416908
0.76735995153
0.669840283185
0.572100587124
0.474518087208
0.377249193311
0.280256723281
0.183389911317
0.0864583528973
-0.0105714352718
-0.107611968868
-0.203767560197
-0.298464357518
-0.387492645417
-0.472866998019
-0.532812170749
-0.601434165765
-0.480503736504
-0.691245204165
-0.703181994971
0.25689190126
-0.0433856246186
-0.00356084009999
0.235411037136
0.39911973342
0.511464604824
0.622299269153
0.738466740498
0.856923878001
0.977657953777
1.10116570354
1.22679288125
1.35321581205
1.47902829964
1.6029405421
1.72381585707
1.84068597982
1.95275833655
2.05941024258
2.16017274031
2.25471104498
2.34280376192
2.42432362251
2.499219278
2.56750007633
2.62922251771
2.68447992214
2.7333931607
2.77610477714
2.81277096678
2.8435621483
2.8686421467
2.88821508273
2.90238035191
2.91104171096
2.91108272236
2.90122042422
2.88144599763
2.8522668871
2.81401028801
2.76680863407
2.71092455725
2.64684991913
2.575221474
2.4967495568
2.41219521254
2.32235115028
2.22801015427
2.12992850314
2.02879476997
1.92520583588
1.81965227842
1.71251384867
1.60406781601
1.49450999343
1.3839883481
1.27264546921
1.16066545607
1.04831735798
0.935987262384
0.824190472701
0.713558519265
0.604799783423
0.498638930951
0.395744769003
0.296664057856
0.20176577004
0.111234893717
0.025053008876
-0.0568677115422
-0.134838802671
-0.208660312223
-0.279197332805
-0.343524687108
-0.4077440541
-0.448142265975
-0.516267721207
-0.350001985319
-0.648452641892
-0.880221542418
0.726422242701
0.16755888541
0.23057684427
0.467421835756
0.580229580183
0.646124213076
0.719049964219
0.800834344388
0.888245717126
0.981721390886
1.08138813131
1.18603209782
1.29389174202
1.40320310298
1.51233930051
1.61983400207
1.72439796022
1.82492810764
1.9205023347
2.01036504143
2.09390879638
2.17065566819
2.24023873764
2.30238511306
2.3569001212
2.40365366359
2.44256778028
2.47360657024
2.49676623277
2.51206935074
2.51955249659
2.51927499319
2.51129498773
2.49593658209
2.47442769397
2.44858829898
2.41897556433
2.38597214799
2.35004769487
2.31149385662
2.2703126077
2.22635465522
2.17944461793
2.12939918192
2.07601774557
2.01909706316
1.95845994951
1.89397875385
1.82559026403
1.75330393115
1.677204406
1.59744743524
1.51424975629
1.42787460014
1.3386158277
1.24678403307
1.15269833243
1.05668684687
0.959097378149
0.860316935892
0.760795974371
0.661069628573
0.561768448513
0.463610848354
0.367374507709
0.273853361141
0.183795190255
0.0978697955368
0.0165950646285
-0.0595708942527
-0.130498979226
-0.195591535699
-0.255808042502
-0.307878810866
-0.360287637562
-0.38525996868
-0.452509232871
-0.227492821865
-0.612264053855
-1.06191198231
1.3291083627
0.405549326311
0.486457157135
0.674872278743
0.718575626627
0.740891325905
0.783739226528
0.841064463094
0.908800346171
0.986637854336
1.07357965295
1.16765951924
1.26672964725
1.36880053302
1.47208490228
1.57499478169
1.67614457726
1.77434984954
1.86861712955
1.95812800495
2.04222137881
2.12037544754
2.19219031483
2.2573714247
2.31571441162
2.36709134959
2.4114386997
2.4487470781
2.47905265074
2.502432365
2.51900061219
2.52892219352
2.53240459537
2.52965522111
2.52014572071
2.50346664044
2.47971840385
2.44912380163
2.41202797002
2.36884307599
2.31997677132
2.26584725617
2.20691729907
2.14368094481
2.07662217129
2.00618246238
1.93274459339
1.85662565312
1.77807626753
1.69728735207
1.61440456774
1.52954809013
1.4428343703
1.35439631171
1.2643989614
1.17304844161
1.08059369769
0.987322227452
0.893553360848
0.799632544017
0.705931591338
0.612854008908
0.52084692084
0.430410041515
0.342098313217
0.2565152176
0.174276285699
0.0959956384522
0.0222009624476
-0.046575221775
-0.110156952432
-0.167837208737
-0.220786816406
-0.265284300161
-0.311839937774
-0.327861294244
-0.402238181768
-0.118671767264
-0.589986720416
-1.24470602678
2.04765909612
0.632167042224
0.738021095119
0.848339784045
0.825821543374
0.816482358488
0.839094644559
0.880780231795
0.936812336759
1.00564689266
1.08508716968
1.17255474136
1.26565080926
1.36226667833
1.46054652111
1.55885977316
1.65578731266
1.75010869861
1.84078697862
1.92695220055
2.00788487373
2.08299986135
2.15183076717
2.214015076
2.26928011936
2.31743011375
2.35833424122
2.39191637293
2.41814577218
2.43703162175
2.44861535055
2.45297796195
2.45022987124
2.44064980223
2.42486673346
2.40321220494
2.37595380415
2.34336876918
2.30572812809
2.26328123332
2.2162407331
2.16479656185
2.10914842756
2.04952387056
1.98617681981
1.9193799231
1.84941724139
1.77657541577
1.70113238535
1.62334640295
1.54344870952
1.46164222135
1.37810681588
1.29301104751
1.20652809172
1.11885331757
1.03021949535
0.940906675471
0.85124533046
0.761611808637
0.672422292942
0.584122769876
0.497188179937
0.412119777549
0.329448259263
0.249737593898
0.173556107088
0.101478775401
0.0339919807332
-0.0283838414737
-0.0855796303177
-0.136984000835
-0.184154622861
-0.22313272969
-0.266525560004
-0.277466008873
-0.364736339396
-0.0250237646244
-0.57909483558
-1.40766468812
2.86526563211
0.820447814953
0.977260957464
0.993137869613
0.918225638884
0.888762839487
0.898029223833
0.929789892423
0.978862552942
1.04233177092
1.11701559865
1.19994060026
1.28859193032
1.38084496133
1.47487064737
1.5690850413
1.66211760065
1.75278834166
1.84008883385
1.92316582269
2.00130671316
2.07392611174
2.14055288311
2.20081773599
2.25444112277
2.30122165248
2.34102495595
2.37377381906
2.3994387782
2.41803267067
2.42960165793
2.43423445406
2.43203063263
2.42318295152
2.4077395572
2.38572577012
2.35732876961
2.3228348855
2.28258856779
2.23697298314
2.18639173468
2.1312554575
2.07197700363
2.00896651146
1.94262175216
1.87331845302
1.80140481173
1.72719937977
1.6509902527
1.57303465588
1.49355952397
1.41276349261
1.33082109308
1.24788996879
1.1641210748
1.07967170243
0.994719632181
0.909475869364
0.824195511346
0.739179299077
0.654777137112
0.571375830177
0.489402158883
0.409309713352
0.331583554642
0.256749501082
0.185347280649
0.117914267645
0.0548747929548
-0.00322854462046
-0.0564805026266
-0.104466702881
-0.149106035657
-0.186251661995
-0.230071350539
-0.241051232851
-0.34284750159
0.0500615343326
-0.582061622064
-1.53906714675
3.75214140812
0.948911493883
1.20529424943
1.11765519142
1.0079951981
0.966177437783
0.965994109295
0.991114367137
1.03561239538
1.09521338433
1.1660091304
1.24479545088
1.32902655231
1.41662565802
1.50584617855
1.5951982217
1.68339851311
1.76933967916
1.85206831903
1.93076908976
2.00475274998
2.07344558003
2.13637944422
2.19318193245
2.24356627597
2.28732082324
2.32429847971
2.35440647918
2.37759661219
2.39385809018
2.40320907336
2.40570312057
2.4014183607
2.39057251906
2.37338398404
2.34996869975
2.32050023045
2.28521558364
2.24439334295
2.19834520168
2.14741391413
2.09197074179
2.03241272122
1.96915727996
1.90263164115
1.83325887687
1.76144429138
1.68756436274
1.61195883057
1.53492650056
1.45672493167
1.37757402053
1.2976621498
1.21715572951
1.13620923774
1.05497695739
0.973624109486
0.892335991932
0.811329532396
0.730851767338
0.651192267248
0.572662777502
0.495615540822
0.420420029575
0.347468391916
0.277176736703
0.210040083716
0.146454957546
0.0866127298164
0.0311302081353
-0.020497119514
-0.0683458335482
-0.114567612797
-0.155204771768
-0.203699735004
-0.224695500136
-0.333843732713
0.107241103198
-0.612024619107
-1.62887021391
4.67468711266
1.00856658822
1.43088826691
1.22942668041
1.10177700351
1.05099918589
1.04343130387
1.0638031546
1.10483060718
1.16103790969
1.2280241504
1.30247428395
1.38187994595
1.46426622667
1.54801279413
1.63175969052
1.71433884869
1.79473983278
1.87208534827
1.94561708312
2.0146870618
2.07875049475
2.1373590778
2.19015418126
2.23685863267
2.27726734175
2.31123701375
2.33867552456
2.35953133964
2.37378478084
2.38143970379
2.38252879602
2.37710224944
2.36531409383
2.34725154868
2.32298645418
2.2926693316
2.25653020167
2.21486150281
2.16800538932
2.11634484319
2.06029459191
2.0002921635
1.93678930695
1.87024240763
1.80110132356
1.72979767759
1.65673373036
1.58227309035
1.50673426595
1.43038833761
1.35346145833
1.27614013376
1.19858277493
1.12093055568
1.04332069464
0.965897751544
0.888819439174
0.812271521472
0.736454154949
0.661611957857
0.587994561201
0.515879918838
0.445560722951
0.37734307967
0.311439505758
0.248420150839
0.188384965455
0.130908212326
0.0766844984225
0.0246349302019
-0.026438115596
-0.0783805365629
-0.128666479162
-0.187266549484
-0.23118978697
-0.323642133203
0.142495428998
-0.683376206556
-1.6729149462
5.59860667712
1.00048596598
1.66376147985
1.33169242839
1.20146723334
1.14217465366
1.12888500522
1.14578382659
1.18383536899
1.23666188447
1.29955938223
1.36920079085
1.44317978025
1.51966961589
1.59720826569
1.67458821441
1.75077023168
1.82485195992
1.89604003748
1.96363982523
2.02705120307
2.08576461928
2.13935818697
2.18749378146
2.22991051848
2.26641591855
2.29687595764
2.32120304301
2.339344934
2.35127064656
2.35696732107
2.35642450854
2.34969686125
2.33694739073
2.31819687494
2.2934984275
2.26296482355
2.22678075213
2.18520002676
2.13853953208
2.08717223059
2.03151761113
1.97202991485
1.90918548528
1.84346958207
1.77536278722
1.70532741084
1.6337947658
1.56115435771
1.48774615039
1.41385682331
1.339722301
1.26553005347
1.19143328052
1.11756028759
1.04403089798
0.97096776337
0.898497076038
0.826776218913
0.755961183359
0.686244829471
0.617838534937
0.550931145514
0.48575884046
0.422642593327
0.361284176874
0.30245504758
0.246063325453
0.190825036992
0.136786414748
0.081973712995
0.0241431640154
-0.0384246024971
-0.104828893143
-0.180574310791
-0.25316038831
-0.299376866855
0.123142893519
-0.782923643263
-1.6708207017
6.49392943677
0.934472296535
1.91157791107
1.4241588447
1.30684363333
1.23769531281
1.22055329446
1.23483689489
1.27008686086
1.31935097036
1.37776147706
1.44207155513
1.51003721803
1.58001814016
1.65073367114
1.72114240412
1.79033854577
1.85753305482
1.92201753683
1.98316346542
2.04042210347
2.09332356046
2.14147805369
2.1845750462
2.22237719453
2.25471224413
2.28146315275
2.30255476881
2.31794132552
2.32758660953
2.33146476113
2.32952827454
2.32183078894
2.30849500343
2.2894501737
2.26470636025
2.23434451653
2.19852126713
2.15747091418
2.11150001293
2.06097777348
2.00632491666
1.94800182095
1.88649577784
1.82230720222
1.75593495828
1.68786165188
1.61853931598
1.54837713944
1.47773210673
1.40690343919
1.33613694804
1.26562104354
1.19550676116
1.12591260869
1.0569449331
0.988712228032
0.921319235302
0.854893242626
0.789581505989
0.725498009648
0.662920937949
0.601886420926
0.542441316246
0.485249236439
0.429766308834
0.37619090357
0.324267915625
0.27192460886
0.217336014187
0.157041333349
0.0882580016229
0.00983438235752
-0.0774358809225
-0.175222373621
-0.269286714122
-0.269830805849
0.0223592663763
-0.88102522454
-1.62565719546
7.33698414926
0.825358219961
2.17763830884
1.50428887602
1.41716182611
1.33550115785
1.31673771384
1.32888554559
1.36136974838
1.40684006662
1.46036961558
1.51888029456
1.58034039088
1.64332425731
1.70674815941
1.76974213255
1.83153190654
1.89144327073
1.9488479326
2.00318359783
2.0539543362
2.10073202695
2.1431634307
2.18097103814
2.21394595631
2.24194096618
2.26486147607
2.28265085121
2.29527608221
2.30270161519
2.30489242215
2.30176777394
2.29337861771
2.2797898093
2.26085789684
2.23653151337
2.20684647453
2.17192269131
2.13196834035
2.08727622578
2.03821022361
1.98518933699
1.92867436607
1.86915647104
1.80714438026
1.74314933992
1.67766929719
1.61117294635
1.54408629948
1.4767821402
1.40957096163
1.34271197714
1.27639574765
1.21077575239
1.14596487259
1.08206718885
1.01917638993
0.95741277101
0.896848372288
0.837769270154
0.780061613169
0.72414661291
0.670385968253
0.61849077806
0.569093000518
0.521820531628
0.475959868972
0.430031181486
0.380851349326
0.324435662283
0.256047439547
0.173071369492
0.0761585931972
-0.0323964905515
-0.152597897516
-0.264601779737
-0.268402377936
-0.167542936916
-0.944068053517
-1.54251978989
8.11126741509
0.689907957171
2.46074177094
1.56921286335
1.53205747457
1.43373427699
1.41593071811
1.42604661705
1.45577862952
1.49724184947
1.54556253908
1.59791166716
1.65250455932
1.70815048371
1.76397178616
1.81926833007
1.87339277605
1.92578641052
1.97589156216
2.02321494129
2.06731423535
2.10780507964
2.14437599692
2.17678772345
2.20486227943
2.22848064867
2.24757485843
2.26211293263
2.27208132455
2.27745213303
2.27818501578
2.27416865969
2.2654377928
2.25197592194
2.23355742926
2.21006377625
2.18148878296
2.14792170667
2.1095457065
2.06663787264
2.01955665517
1.96872034696
1.91458793778
1.8576470974
1.79840473461
1.73737469001
1.67506326525
1.61195152321
1.54848055841
1.48503999219
1.42195235317
1.35949708544
1.29786958677
1.23723876771
1.17771118882
1.11941956551
1.06242037811
1.00699605139
0.952993659425
0.901022576235
0.851302984958
0.803882955103
0.759442629568
0.717884821502
0.679390701202
0.643291111157
0.607881000662
0.569851589269
0.524148408643
0.464990626364
0.38753981812
0.290623306794
0.17692198636
0.0479320479756
-0.0999906375884
-0.248017666183
-0.323756463459
-0.404311497775
-0.929917390605
-1.42761249802
8.80694763785
0.544172833479
2.75597808007
1.617043836
1.65154857801
1.53062345601
1.51678767684
1.52462520537
1.55168107709
1.58897027301
1.63184908423
1.6777965086
1.7252944067
1.77340193764
1.82145036408
1.86890183247
1.9152337624
1.96000217606
2.00270767464
2.04293577161
2.08029646301
2.11445150602
2.14513799033
2.1721575509
2.1953608439
2.21465811409
2.23001206175
2.24142287247
2.24890434122
2.25244237187
2.25199158396
2.2474147563
2.23871202504
2.22577740079
2.20828839552
2.18603986627
2.15898158234
2.12719178234
2.09084716278
2.05020799522
2.00561281526
1.95746847941
1.90623078201
1.85238572031
1.79643668771
1.73889381535
1.6802646203
1.62103714775
1.56166589472
1.50256005715
1.44405435996
1.38646223854
1.32998521977
1.2748280204
1.22107883159
1.16901762007
1.1185206443
1.07023066193
1.02433509064
0.981089465324
0.941151272813
0.90475342886
0.872564381678
0.844744739922
0.821110278209
0.800043794865
0.778030384274
0.749471025258
0.707405277599
0.645278328374
0.559020947967
0.44814684
0.313470890921
0.150885139825
-0.0456122048553
-0.253159755295
-0.420817590931
-0.599986449305
-0.878233248438
-1.28740759752
9.41983632803
0.401875460345
3.05613241551
1.64758104537
1.77569218961
1.62443847316
1.61815024418
1.62311543322
1.64768212403
1.68067661523
1.71798224794
1.7574049712
1.79770126458
1.83819309897
1.87841463993
1.91798133696
1.95649983642
1.99363520923
2.02893552301
2.06208575036
2.09273911057
2.12060891967
2.14548851288
2.16721518962
2.18565766611
2.20075752145
2.21251528121
2.22097836731
2.22620168817
2.22819206479
2.22688992773
2.22213904872
2.21386208482
2.20186346807
2.18573788679
2.16516966174
2.14001712747
2.11033981515
2.07635734223
2.03836786373
1.99670224753
1.95173120437
1.90387792755
1.85361167192
1.80142951652
1.74783735583
1.69334367445
1.63844168464
1.58359803292
1.52924831011
1.47574598874
1.42344598456
1.37255900813
1.32339918964
1.2759535557
1.23078930927
1.18812660462
1.14831177329
1.1118896417
1.07932430876
1.05149958464
1.02917741632
1.01323215894
1.00369944079
0.999357208219
0.996627209387
0.989263191244
0.968985415382
0.926902784165
0.85540508148
0.749297762865
0.605394143581
0.420785038551
0.193280261416
-0.0653933216631
-0.312143273753
-0.50761743791
-0.6770620482
-0.801669583294
-1.12813448482
9.95007753171
0.273615634282
3.35309267265
1.66236258072
1.90416505503
1.71355682218
1.71906152488
1.72018403334
1.74259055453
1.77120268179
1.80290243746
1.8357790588
1.86886943362
1.90176956669
1.93419928828
1.9659254335
1.99669491636
2.02626449466
2.05423129783
2.08040860063
2.10446801222
2.12619084521
2.14543060442
2.16203624308
2.17587483015
2.1869287913
2.19525250414
2.20097001937
2.20419938485
2.20497793693
2.20322808667
2.19874446908
2.19132280916
2.18060855539
2.16618568299
2.14772773319
2.1249930177
2.09791171638
2.06666683653
2.03162225686
1.99318142987
1.95172970172
1.90765601611
1.86138682086
1.81339125608
1.76415956712
1.71419782515
1.66400668055
1.61407088456
1.56484798278
1.51673941592
1.47016212818
1.42533648596
1.38271807836
1.34265738275
1.30551520389
1.27164333543
1.24162652474
1.21630357322
1.19674495391
1.18436913535
1.18035928168
1.18539347655
1.19840612267
1.21575685774
1.23033765264
1.23174505118
1.20761877223
1.14538342957
1.03414476796
0.866285173304
0.639562684116
0.360722800741
0.0518687484872
-0.242237122738
-0.466974354511
-0.607910241971
-0.697243469677
-0.746344481552
-0.955454191054
10.4008926636
0.166743828142
3.63901892296
1.66430995847
2.03600212216
1.79662345978
1.81874931456
1.81465308094
1.83539514194
1.85955029499
1.88570155489
1.91209203982
1.93805468112
1.96346656523
1.9882045054
2.01220393339
2.03535807453
2.05748353821
2.0782570941
2.09764140558
2.11528357799
2.1310769884
2.14492024975
2.1566185345
2.1660163263
2.17316790195
2.17821466844
2.18140787033
2.18293332919
2.18285277323
2.18106607286
2.17740667832
2.17152448919
2.16262437643
2.15010276897
2.13372602017
2.1134759331
2.0893488604
2.06139228115
2.02983134688
1.99504764347
1.95747249213
1.91751880296
1.8755960822
1.83214289159
1.78762382445
1.7425411153
1.69739560223
1.65271146081
1.60894014347
1.56666754348
1.52625038797
1.48832500178
1.45326953027
1.42126455069
1.39293814684
1.36887322671
1.35019388776
1.33839767225
1.3352338003
1.34251539789
1.36120355028
1.3905439204
1.42648098617
1.46065751643
1.48000211614
1.46773528465
1.40573650017
1.27765286352
1.07302133608
0.792315117867
0.452388337712
0.0892413272991
-0.245901195778
-0.500514732968
-0.648505072916
-0.7167090896
-0.741908952176
-0.757883841602
-0.77431125698
10.7774700051
0.0856464411622
3.90713363004
1.65717768554
2.16954331076
1.87270920294
1.91656418257
1.9054906505
1.92524772237
1.94486107451
1.96560164252
1.98562638364
2.00460510017
2.02269201665
2.03988683034
2.05633819905
2.07206213014
2.08690143234
2.10068652043
2.11350808318
2.12494805017
2.13510124146
2.1438401892
2.15083605932
2.15592026593
2.15929310788
2.16125286912
2.16225653791
2.1625116368
2.16197552371
2.16045206734
2.15788970088
2.15408518094
2.14809394957
2.1387112752
2.12508833587
2.1072155392
2.08563825216
2.06079860371
2.03288914581
2.00209806213
1.96875378669
1.93324578184
1.89597300953
1.85735953124
1.8178422914
1.7779291293
1.73810929416
1.69906026892
1.6610452574
1.62522270417
1.59197375071
1.56146517866
1.53441315402
1.51107426358
1.49244824872
1.47975279508
1.47481646533
1.47982816138
1.49692928594
1.52753552934
1.5708712404
1.62248817708
1.67254958714
1.70525766927
1.69973284897
1.63302715567
1.48509505942
1.24505727864
0.918077308692
0.530551679934
0.12976573405
-0.226556866989
-0.490596323009
-0.64497626516
-0.710198985977
-0.719074703178
-0.670998506493
-0.550552632148
-0.588885737389
11.0860924811
0.0322489966657
4.15214763318
1.64499142558
2.30256019743
1.94140491401
2.01189643061
1.99181941493
2.01144866417
2.02640400336
2.04194288961
2.05576428503
2.06795579191
2.0789246861
2.08876704216
2.09791196188
2.10641641934
2.11415478785
2.12121878071
2.12771909048
2.13319434861
2.13806245998
2.14197930118
2.14439735897
2.14523728744
2.14497946473
2.14417959605
2.1435798191
2.14337340669
2.14334113339
2.14284831431
2.14131639632
2.13856240943
2.13428373914
2.12791574381
2.11829765363
2.1043805652
2.08628507413
2.06484440889
2.0406676432
2.01401513177
1.98514382508
1.95436914169
1.92203033206
1.88852180517
1.85425187497
1.81980590375
1.78555507248
1.75254210588
1.72121481321
1.69232339397
1.66647641615
1.64381006026
1.62521253452
1.61143774406
1.60404953255
1.60501065909
1.61682211934
1.64200038762
1.68216097337
1.73664541626
1.80048845379
1.86269267234
1.90518508938
1.90393178927
1.8325869026
1.66887984329
1.402651877
1.04339563569
0.624253241495
0.198562710877
-0.173321173546
-0.444659430111
-0.601357496002
-0.666020980684
-0.67549424211
-0.641089127798
-0.529423962812
-0.347861294256
-0.402624391172
11.3334681507
0.00659069499894
4.37038116404
1.63158539688
2.43248748197
2.00282563522
2.10410351071
2.07293838035
2.09342963764
2.1035678377
2.11417734165
2.12198566973
2.12763076064
2.13171991076
2.13444355207
2.13657684477
2.13806702943
2.13893029943
2.13959926669
2.13998908289
2.13977492441
2.13976321649
2.13903493684
2.13686524264
2.13350985568
2.12984331116
2.12663833369
2.12476814839
2.12456081927
2.12610478933
2.12908577811
2.13210273764
2.13331544999
2.13110696609
2.12515651107
2.11631438663
2.10489080631
2.09044310827
2.07296242136
2.05287874473
2.03054817826
2.00629280259
1.98041680022
1.95320128307
1.92503149899
1.89622237708
1.86750762386
1.83950737836
1.81299668775
1.78859116909
1.76695490558
1.74871797068
1.73438633275
1.7251520208
1.72238344209
1.72831381377
1.7455711572
1.77692249838
1.82422985241
1.88685256228
1.95963237707
2.03074660413
2.08073046026
2.08349318842
2.0105754098
1.83839087793
1.55725354305
1.17925580856
0.741182832345
0.299055838895
-0.0865743539474
-0.370262942628
-0.537254729369
-0.606130679069
-0.615258451938
-0.595739208214
-0.537282282761
-0.405662750403
-0.238410529973
-0.218299065882
11.5262718654
0.00737591909264
4.55967584451
1.62028651206
2.55668508276
2.05753450758
2.19247050425
2.14834602522
2.170731745
2.17585794366
2.1818651917
2.18387002869
2.1832466169
2.18071736847
2.17660302581
2.17204762861
2.16670417638
2.16100245942
2.15563981313
2.15006958772
2.14453553727
2.14006834887
2.13468903882
2.1277848473
2.12021409629
2.11325568851
2.10759721067
2.10387925342
2.10280127651
2.10401730905
2.10747369235
2.11324452017
2.11988178783
2.12532310772
2.12633557748
2.12027700427
2.11005910459
2.09802948545
2.08425657907
2.06850889723
2.05082190923
2.03145572061
2.0107264913
1.98884008568
1.96617931658
1.94330080381
1.92073652836
1.89914709254
1.8793703899
1.86206045472
1.84798047277
1.83790821228
1.83277331587
1.83421152286
1.84427073007
1.86577384773
1.9015810368
1.95374149426
2.0217817668
2.10052748987
2.17796796235
2.23400786617
2.24161482449
2.17112867289
1.99799817277
1.71218708526
1.32617840829
0.877442945297
0.422218623121
0.0205838717319
-0.28238060934
-0.470535480073
-0.558112219929
-0.578326148337
-0.565516731218
-0.535391160518
-0.470146238815
-0.343557199277
-0.201916862147
-0.0381131505696
11.6708241609
0.0324549814113
4.71918067097
1.61375220201
2.67267536938
2.1064177143
2.27621186487
2.2177515615
2.2429819948
2.24289538836
2.24467092271
2.24109735856
2.23451387965
2.22564820527
2.21502405297
2.20409741351
2.19209420756
2.1802765825
2.16920989716
2.15776937247
2.14748878905
2.13899326035
2.12871306874
2.11656891953
2.10426824352
2.09420307159
2.08741098385
2.08483189827
2.08678169043
2.09078789699
2.09584950636
2.10135065313
2.10715879333
2.11458329952
2.12243529787
2.1249596154
2.11914477667
2.10974897412
2.09911659626
2.08736027342
2.07433528747
2.0599926476
2.04454759943
2.02834990413
2.01155841247
1.99468138682
1.97841024259
1.9634103056
1.95058580145
1.94073204069
1.93474696394
1.93365610215
1.93886454255
1.95253530017
1.97730546106
2.01616737696
2.07126746746
2.14237228313
2.22461367676
2.30624818132
2.36738051454
2.38085715721
2.31656627865
2.14906100563
1.86710490362
1.48171931286
1.02876085439
0.562955266491
0.143640659509
-0.183110846675
-0.398021016975
-0.51067176061
-0.549411663238
-0.546237084433
-0.524490966096
-0.489523471905
-0.423940024989
-0.308901753814
-0.186692145055
0.136204276088
11.7729123477
0.0792232563163
4.8490918758
1.61393527516
2.77832134755
2.15053902319
2.35450461854
2.28106505926
2.30987161252
2.30441601477
2.30235655322
2.29344564048
2.28123501495
2.26633947218
2.2495754801
2.23256623109
2.21413809646
2.19679949926
2.18017949312
2.16298950414
2.14891739186
2.13670708043
2.12061983094
2.10202065713
2.08523216378
2.07555446337
2.07455940839
2.0789870171