/*--------------------------------*- C++ -*----------------------------------*\
| =========                 |                                                 |
| \\      /  F ield         | OpenFOAM: The Open Source CFD Toolbox           |
|  \\    /   O peration     | Version:  v1806                                 |
|   \\  /    A nd           | Web:      www.OpenFOAM.com                      |
|    \\/     M anipulation  |                                                 |
\*---------------------------------------------------------------------------*/
FoamFile
{
    version     2.0;
    format      ascii;
    class       volScalarField;
    location    "500";
    object      pa;
}
// * * * * * * * * * * * * * * * * * * * * * * * * * * * * * * * * * * * * * //

dimensions      [0 2 -2 0 0 0 0];


internalField   nonuniform List<scalar> 
6400
(
0.506891385438
0.443032314536
0.316059921921
0.231825051876
0.230063459086
0.295842157455
0.42595129367
0.566554066478
0.698363357291
0.821014681379
0.932572266233
1.02891177876
1.10751274619
1.16815856191
1.21192203464
1.24037428847
1.25528577689
1.25850694536
1.25185704643
1.2370315802
1.21554546879
1.18871714238
1.15767164909
1.12335861134
1.08657182159
1.04797412821
1.00811897617
0.967473854388
0.926439285008
0.885371206018
0.844605828258
0.804516821478
0.765621377013
0.728739660442
0.694371962916
0.658924194428
0.604678508559
0.523124724507
0.417141932557
0.296503521293
0.168470868083
0.0366689152576
-0.0971840408191
-0.231886255915
-0.36632098049
-0.499455245284
-0.630356520871
-0.758163386307
-0.882045645699
-1.00118373614
-1.1147564277
-1.22193749654
-1.32189234903
-1.41378371343
-1.49678129032
-1.57008393484
-1.63294821541
-1.68472952654
-1.72492769182
-1.75323975492
-1.76960942383
-1.77427279791
-1.76778888931
-1.75105436109
-1.72529312819
-1.6920244693
-1.65300325277
-1.61014547077
-1.56542183915
-1.52076732673
-1.47789698062
-1.43828144423
-1.40262590229
-1.3713979878
-1.34262338217
-1.31658885226
-1.28540143222
-1.26308378373
-1.22603433621
-1.27691504518
0.329104174215
0.209462994557
0.147549578719
0.117679050111
0.192103140045
0.449483662744
0.804100408453
1.23969487784
1.75205067942
2.32919495536
2.95499844268
3.61285141129
4.28796022258
4.96807773628
5.64328722473
6.30563040227
6.94884926852
7.56817307788
8.16008628362
8.72208980958
9.25248350382
9.75018660444
10.2145898907
10.6454397021
11.0427424368
11.4066933222
11.737617813
12.035931467
12.3021066676
12.5366529878
12.7401002867
12.9129748103
13.0558056058
13.1694031379
13.2573658596
13.3339626807
13.4281602513
13.5303070164
13.6148659521
13.6716168402
13.6996142912
13.698699706
13.6679324749
13.6061376797
13.5122587142
13.3853787546
13.2246788998
13.0294397364
12.7990741392
12.533164887
12.2315033591
11.8941303609
11.5213855292
11.113962886
10.672974977
10.2000194471
9.69724651515
9.16741687401
8.6139433391
8.04090275835
7.45300957879
6.85554026966
6.25420523345
5.65496750369
5.06381670067
4.48651037419
3.92830375336
3.39368248221
2.88613154118
2.40792265627
1.96002044901
1.54189006155
1.15181993884
0.786271942202
0.442373142704
0.113488832831
-0.193818312275
-0.492609533976
-0.690903218556
-0.946816239628
0.206632029037
0.141150737638
0.154496630513
0.169639849769
0.231696328797
0.368477910476
0.561047019634
0.802515816529
1.08261761381
1.38651697481
1.70020685538
2.01232842639
2.31382840898
2.59779557631
2.85937312691
3.09546376876
3.30435274111
3.48537735903
3.63865729379
3.76486662785
3.86504697696
3.94046151858
3.99248908554
4.02254824151
4.03204708417
4.02234996776
3.9947599776
3.95050984689
3.89076214041
3.81661048983
3.72908707553
3.62914557952
3.51757318614
3.39423257465
3.25539377566
3.08790055477
2.89412906413
2.6970769466
2.50986096975
2.33069705937
2.15748525804
1.99078831195
1.8320930879
1.68285888024
1.54440412476
1.4179088616
1.30434837034
1.20441554383
1.11846743393
1.04649330343
0.988091314284
0.942453803339
0.908359748742
0.884180004417
0.867894721835
0.857129869346
0.84921363932
0.841260114188
0.830279523347
0.813318082889
0.787620193977
0.750806729492
0.701052942194
0.637250778758
0.559135108209
0.467357828528
0.363498860732
0.250002406975
0.130059662801
0.00738899763092
-0.1139464406
-0.230048500374
-0.337124957685
-0.433322355261
-0.515981036652
-0.590775768475
-0.645029225126
-0.708236086629
-0.628683795113
-0.811345136139
-0.0458521173243
0.102935039819
0.0620442280796
0.0459076231396
0.193376318012
0.406813620811
0.648199857003
0.924846084894
1.23326814353
1.56199796565
1.9022874896
2.24836645305
2.59539877898
2.93919377359
3.27652389357
3.60510639768
3.92336185367
4.23020152414
4.52488894485
4.80694206455
5.07605374096
5.33203298922
5.57476382373
5.80418103213
6.02025452929
6.22298239077
6.41238612106
6.58851077004
6.7514218471
6.90120621098
7.03794954867
7.16173868747
7.27257722577
7.37090839769
7.45846596871
7.54150098145
7.60111157433
7.63183511495
7.64021598762
7.62704614264
7.59013094013
7.52841268179
7.44195993622
7.33112137878
7.19631697118
7.03814812875
6.85747929067
6.65545090484
6.43347553987
6.19323195937
5.93665494262
5.66591153115
5.38336592723
5.09152889755
4.79299491301
4.49036283626
4.1861453183
3.88266710159
3.581963022
3.28568263236
2.99501751396
2.71066160876
2.43281905025
2.16126359196
1.89545286463
1.63468641175
1.3783000952
1.12586766618
0.877423252298
0.633622574311
0.396021920014
0.166990492061
-0.0494801768713
-0.249468734959
-0.424319235932
-0.573624083959
-0.667607557109
-0.745145366177
-0.572045643546
-0.8071023504
-0.442902805226
0.281624607728
0.101819136583
0.105102496107
0.404200491725
0.692242971073
0.935762099321
1.18270331977
1.44155188117
1.70480042617
1.96885569955
2.23240039145
2.49328147845
2.74867131099
2.99590083829
3.23273160655
3.45730627333
3.66808517807
3.863822195
4.04354391578
4.20651950292
4.35222543352
4.48031358002
4.59058230405
4.68295232122
4.75744453558
4.81416217983
4.85327381894
4.87500072778
4.87960066916
4.86736352847
4.83857928118
4.79356530133
4.73238967126
4.65506065087
4.56250611831
4.46735664321
4.37217818016
4.27889883561
4.18856283843
4.10077712238
4.0150732865
3.93132641136
3.84939514614
3.76889140613
3.68919290683
3.60950226361
3.52887987861
3.44627081939
3.36054812358
3.2705695184
3.17524279257
3.07359283232
2.96482916503
2.84840742868
2.72408127882
2.59193587969
2.4523982638
2.30621678104
2.15440830367
1.99817257496
1.83878187457
1.67745720429
1.51524905068
1.35294144106
1.19099552606
1.02954945656
0.868465049088
0.707453745084
0.546185993925
0.384610906998
0.222871621736
0.0624813261999
-0.095619903535
-0.244203441825
-0.386629540517
-0.485279334614
-0.598124827645
-0.389249645607
-0.769780149062
-0.731806737935
0.819194665911
0.331719325501
0.373748103794
0.765567188031
1.04154488008
1.23423429501
1.42659213381
1.62951950653
1.83723184239
2.0494962812
2.26710603595
2.48883787154
2.71229774228
2.93499898817
3.15470475585
3.36944855803
3.57752993208
3.77752098994
3.96826050332
4.14883046243
4.31852569858
4.47682304688
4.62335446451
4.75788333097
4.88028553204
4.99053362617
5.08868534501
5.1748742505
5.24930388328
5.31224521545
5.36404543968
5.40516775459
5.43625472199
5.45774960786
5.46562872923
5.45603922126
5.42870807204
5.384241025
5.32344429069
5.24682422579
5.15489178248
5.04851209579
4.9288582428
4.79724933965
4.65506896683
4.50372993956
4.34462814523
4.17908586272
4.00830023039
3.83330658691
3.65495654168
3.47391313317
3.29066306289
3.10554803346
2.91881250162
2.73066566659
2.54135046821
2.35121241762
2.16075667016
1.97068340686
1.78189088111
1.59544187735
1.41249346734
1.23420088239
1.06160793154
0.895553314839
0.736591125316
0.584990473856
0.440709312036
0.303625627598
0.173257208073
0.0500208701473
-0.0674844541818
-0.174098252905
-0.280035099954
-0.344255625904
-0.454026488608
-0.164507987112
-0.696382028199
-1.03725376116
1.6069144717
0.676020156308
0.761421663644
1.16088464448
1.35630597641
1.47333317905
1.60425078119
1.75151922138
1.90875257364
2.07631732381
2.25435007376
2.44077509975
2.63259721157
2.8268366972
3.02076154099
3.21190431634
3.39807086182
3.57734920276
3.74810285591
3.90895062411
4.0587402629
4.1965221327
4.32152447904
4.43313181545
4.53086578045
4.6143692787
4.68339263027
4.73778263854
4.7774721942
4.80247271131
4.81285777115
4.80874455178
4.79026847182
4.75806610003
4.71637336483
4.66713618138
4.61117574378
4.54939540241
4.48255829548
4.41095715802
4.33449793931
4.25295946896
4.16610645462
4.07368527143
3.97543168281
3.8711120958
3.76056552004
3.64372867435
3.52064741308
3.39147778726
3.25647817929
3.11599266421
2.9704288568
2.82023376198
2.66587281038
2.50781629947
2.34653775042
2.18252647381
2.01631411146
1.84851117852
1.67984528441
1.51119068112
1.34357694152
1.17817056566
1.01622240577
0.859001761639
0.707698813117
0.56337946348
0.426875830303
0.298961594736
0.179888149978
0.0707563386837
-0.0299635012976
-0.116442758999
-0.202825548393
-0.240804433619
-0.34783902149
0.0459655203726
-0.633698743306
-1.34892185229
2.61482790146
1.05752245687
1.18007308846
1.50944189666
1.59418925649
1.64237594102
1.72646262818
1.83512207187
1.96070056079
2.10256786166
2.25916778162
2.4273485959
2.60364260292
2.7848239992
2.96797695798
3.15048408919
3.33002643597
3.50458101338
3.67240755762
3.83202764005
3.98220103774
4.12190211144
4.25029793643
4.36672862097
4.4706904139
4.56182137921
4.63988966661
4.70478443506
4.7565076058
4.7951713957
4.82098608331
4.83428256612
4.83542234754
4.82480857997
4.80154014833
4.76513176582
4.71594698475
4.65473542496
4.58238594581
4.49977381911
4.40774426383
4.30717521912
4.19898856228
4.08409354968
3.96332525371
3.83741162076
3.70696178801
3.57246556429
3.43430286476
3.292764251
3.14807999065
3.00045311802
2.85009155357
2.69723514911
2.54217448487
2.38525982852
2.22690084154
2.06756058944
1.90774787639
1.74801435156
1.58895853487
1.43123899423
1.27558977812
1.12283490629
0.973880535144
0.829707384267
0.691305704106
0.559655469423
0.435595183465
0.320000318671
0.213176935112
0.116385935271
0.0276966878559
-0.0463107401578
-0.123259995908
-0.146323291237
-0.265083629042
0.232801930716
-0.595063375963
-1.65698871383
3.81552696031
1.41976051722
1.59480524109
1.8038373032
1.7822205503
1.78164359002
1.83467002323
1.91818137059
2.02402575632
2.14999368241
2.29280717764
2.44848725918
2.61328599402
2.78386281682
2.95722975968
3.13071493333
3.30194758966
3.46884288588
3.62958280809
3.78259534032
3.92653348545
4.06025508163
4.18280407015
4.29339372451
4.39139197836
4.4763088662
4.54778597171
4.60558751808
4.64959345674
4.6797936462
4.69628677079
4.69928793269
4.68918915696
4.66675500247
4.63315367403
4.58902822527
4.53497371858
4.47163419823
4.39961285736
4.31941876555
4.23148297912
4.13621780096
4.03406422201
3.92550184582
3.81103819687
3.69119563598
3.56649764524
3.43745137707
3.30452882169
3.16815203577
3.02868678372
2.88644660045
2.74170726037
2.59472976033
2.44578813796
2.29519727361
2.1433349978
1.99065664754
1.83769756055
1.68506892123
1.53344644786
1.3835627048
1.23619920645
1.09219307817
0.952421334341
0.817820681643
0.689320751769
0.56785526137
0.454205241279
0.349212899113
0.253020962358
0.166733424527
0.0877116150723
0.0228965513483
-0.0490791882033
-0.0637376345748
-0.204524701378
0.394117754571
-0.575067998327
-1.93250669866
5.17952874231
1.71744142125
1.99085597555
2.05167786513
1.94643331056
1.91609795615
1.9485119976
2.01526816257
2.10841211764
2.22397039259
2.357282017
2.50385349904
2.65981547379
2.82182515699
2.98693888109
3.15255037201
3.31635547454
3.47632367444
3.63067356041
3.77785187806
3.91651495328
4.04551203178
4.16387030727
4.27078179521
4.36559195891
4.44778999693
4.51700073034
4.57297771033
4.61559811655
4.64485935844
4.66087777842
4.66389505996
4.65424404235
4.63231466566
4.59826797124
4.55247250296
4.4955082138
4.42809385502
4.35102213821
4.26510449254
4.17113918878
4.06990329743
3.96215125424
3.84860628054
3.72994789164
3.60680400322
3.47974881642
3.34930265315
3.21593141764
3.0800459682
2.94200302525
2.80210900229
2.66062869824
2.51779916872
2.37384917813
2.22902242614
2.08359978669
1.93792263781
1.79240510946
1.64754347377
1.50391044769
1.36215216166
1.22297269738
1.08714409523
0.955471110568
0.828842385145
0.708131719986
0.594241176432
0.487869088958
0.389843596325
0.300120455435
0.219524965119
0.14474910332
0.0830224217856
0.00994535159946
-0.00473323850009
-0.171787898914
0.524040252013
-0.577102643768
-2.15577059904
6.65944910757
1.91664628335
2.3712241368
2.26886500944
2.108996364
2.06094680344
2.07768032891
2.13194525924
2.21563631896
2.32292503379
2.4480999504
2.58633295602
2.73369326956
2.88688281548
3.04305863553
3.19973766908
3.35473628903
3.506127278
3.65220945667
3.79148566776
3.92264604328
4.04455434803
4.15623664566
4.25687156016
4.34578209669
4.42242828683
4.48640136289
4.53741717711
4.57531369433
4.60004000103
4.61166743378
4.61035291959
4.59649165995
4.57073947517
4.53348018037
4.48516707246
4.42634593127
4.35762948213
4.27967197769
4.19315299066
4.0987701398
3.99723893141
3.88929198885
3.77566979702
3.65710346511
3.53429557497
3.40790357752
3.27852706202
3.14669912563
3.01288263957
2.87747173351
2.74079832197
2.60314403803
2.46475559178
2.3258632245
2.18670162252
2.04752470612
1.90862947744
1.77036246145
1.6331370311
1.49742430917
1.3637599471
1.23271715489
1.1049448545
0.981104839137
0.861926615683
0.748132481509
0.640475094743
0.53932267671
0.445407314705
0.35826655874
0.277969184571
0.200668205456
0.133428606297
0.0520518976214
0.0212269306191
-0.163024332396
0.622001895273
-0.622484908651
-2.31137160251
8.20072000743
2.00205064048
2.7500035691
2.46812818941
2.28065574735
2.21918850743
2.22212340624
2.26622364128
2.34201609172
2.44186448096
2.55925998775
2.68913807133
2.82755333886
2.97130548071
3.11770968319
3.26446082815
3.40954570059
3.55118625534
3.68780375182
3.81799632458
3.94052423231
4.05429973908
4.1583795056
4.25195867126
4.33436586018
4.40505864947
4.46361986611
4.50975232722
4.54327792211
4.56412435217
4.57234450163
4.56806396484
4.55169205795
4.52370197
4.48432225567
4.43398462515
4.37325236092
4.30276882161
4.22322983287
4.13536564029
4.03992689735
3.93767551308
3.82937871896
3.71580188019
3.59769759069
3.47579195237
3.35076999523
3.22326162648
3.09382960547
2.96296147124
2.83106747883
2.69848426667
2.56548766752
2.43230921657
2.2991566453
2.16623871178
2.03377155528
1.90201004281
1.77124112324
1.64181086183
1.51410107547
1.38855994975
1.26563168739
1.14581255998
1.02969430366
0.917717621747
0.810428580907
0.708409093991
0.611145326136
0.519005482604
0.430982761324
0.345543350584
0.259008814062
0.176270809845
0.0786091301599
0.00919154723277
-0.154541656877
0.687582393751
-0.742338963855
-2.39211423715
9.74760752134
1.97494328578
3.14371779088
2.65541307639
2.46432650624
2.38866328283
2.37929476034
2.41497426797
2.48373425651
2.57640432702
2.6858712465
2.80692083644
2.93566419348
3.06906552005
3.20465439373
3.34034751255
3.47433628746
3.6050188084
3.73096087738
3.85087430207
3.96360533491
4.06812831626
4.1635422245
4.24906833337
4.32404852678
4.38794327878
4.4403301881
4.48090012045
4.50945809709
4.52590843474
4.53028132783
4.52266390907
4.50350680868
4.4732831378
4.43220574559
4.38066466239
4.31917858847
4.24833714128
4.16878116333
4.08119837447
3.98631672355
3.8848944266
3.77770923686
3.66554667619
3.54918603634
3.42938459857
3.30686104509
3.18227963707
3.05623593626
2.92924626348
2.80174334213
2.67407550881
2.54651989207
2.41929791931
2.29259564471
2.16659827041
2.04147967819
1.91745243161
1.79473681957
1.67362148554
1.55438966179
1.43740527468
1.32302244949
1.21144857067
1.10354850039
0.99910319734
0.898273559224
0.801787463544
0.707993344034
0.615863103934
0.523203290981
0.426740017931
0.323171495628
0.214653355498
0.0899152661127
-0.0300512003521
-0.119620794331
0.666080852673
-0.916585291339
-2.39698100444
11.2506548596
1.85069918612
3.56563692224
2.83013292045
2.65877948038
2.56540167993
2.54603549041
2.57477129726
2.63705885237
2.72258755201
2.82378415927
2.93539657548
3.05368821086
3.17586272928
3.29971721653
3.42342598667
3.54540858234
3.66425544057
3.77868858579
3.88754305096
3.98975937766
4.08438186283
4.17055911244
4.24754551461
4.31470242667
4.37149893776
4.4175122056
4.45242618835
4.47603329611
4.48822415174
4.48901124769
4.47847206914
4.45704340641
4.42510683801
4.38283351908
4.33058685592
4.26886955741
4.19825195733
4.11934928413
4.03282166909
3.93937190938
3.83973808492
3.73468454367
3.62499153711
3.51144208177
3.39480589274
3.27582104836
3.15517583851
3.03349158025
2.91130886829
2.78908250887
2.66717333729
2.54586390811
2.42537101826
2.3058645066
2.18751798952
2.0704662346
1.95490233258
1.84098021283
1.72895266553
1.61902465424
1.51147402015
1.40679660003
1.30435000549
1.2057489142
1.11068696157
1.01791929357
0.928091751279
0.838316850746
0.745098085002
0.643655675109
0.529423881971
0.400338366075
0.258083836779
0.0979758393938
-0.0600809257186
-0.0655567079235
0.50919101511
-1.10183080077
-2.33028612826
12.6701922335
1.65339688799
4.02214914326
2.98754445541
2.86191599953
2.7456580337
2.71965905017
2.74259598846
2.7988300765
2.877166672
2.96969322012
3.07126031446
3.17838694222
3.28858679932
3.3999688551
3.51098968133
3.62030960849
3.72671715964
3.8290931731
3.92639704583
4.01766469998
4.10201141718
4.17863671686
4.24682919463
4.30597061656
4.35553915127
4.39511143382
4.42436419489
4.4430759944
4.45112533134
4.44851161805
4.43533204513
4.41199985097
4.37880335831
4.33589386697
4.28360588254
4.22240605191
4.15282440701
4.07543580192
3.99086297969
3.89977586275
3.80288496815
3.70093309501
3.59468618923
3.48492118844
3.37241098208
3.25790504381
3.14211027154
3.02567090066
2.90915081217
2.79303088378
2.67768738898
2.56341528487
2.45043417561
2.33890146857
2.22900126516
2.12083655696
2.01460217701
1.91041169416
1.80854339068
1.70922469555
1.61233609541
1.51914196618
1.4289490297
1.34244882678
1.25986906208
1.17903955101
1.09847859295
1.01321019807
0.916986155332
0.802647243201
0.665640356658
0.50695008139
0.330704782564
0.13612012835
-0.0462638188084
-0.0381088930539
0.19750804205
-1.24218700995
-2.19967091506
13.9777944527
1.41078140722
4.51211485654
3.12180381549
3.07238825428
2.92622721247
2.89787263946
2.91569145757
2.96625180392
3.03732513359
3.12081248186
3.2118226156
3.30722305043
3.40489730701
3.50329909906
3.60118205766
3.69745164618
3.79109417685
3.88114677775
3.9666905978
4.0468545166
4.12082299686
4.18784492114
4.24724196416
4.29841506732
4.34085053537
4.37412284221
4.39790100216
4.41194376474
4.41611856145
4.41037577576
4.3948920932
4.37009938869
4.3360913167
4.29303566964
4.24126126805
4.18119808161
4.11332992324
4.03818622075
3.95634645402
3.8684397357
3.77513948166
3.6771568364
3.57523338758
3.47013008571
3.36261429186
3.25343941898
3.14332636863
3.03294111293
2.9228702157
2.81362906186
2.70561472669
2.59914440408
2.49445444218
2.39170826788
2.29110673405
2.19276149359
2.09691896153
2.00373214912
1.91333181936
1.82674174507
1.74376171051
1.66518966453
1.59130025375
1.52187800854
1.4563349468
1.3916835852
1.32343681283
1.24359509062
1.14327464114
1.01477376579
0.8558999632
0.671041498291
0.462838229384
0.224999507606
-0.00943013370109
-0.107523089542
-0.219672315036
-1.27358814047
-2.0146235442
15.1556964057
1.14998897058
5.02794915251
3.22837481603
3.28984103529
3.10423442704
3.07869275077
3.09155017448
3.13686836718
3.20062020456
3.27478496421
3.35487092419
3.43816764412
3.52297445316
3.60811137167
3.69263542915
3.77569667437
3.8564754886
3.93416074765
4.00795080383
4.07706349481
4.14074856375
4.19830096508
4.2490723285
4.29248015256
4.32801642851
4.35525170591
4.3738457021
4.3835356725
4.38417777709
4.37566601843
4.35828065428
4.33245603785
4.29809985408
4.25538715346
4.20465194147
4.14629423134
4.08075274262
4.00851017707
3.93009957771
3.84610366302
3.75715139105
3.66391369944
3.56709948192
3.46744488599
3.36570483993
3.26263053421
3.15895393056
3.05536374024
2.95247016775
2.85083382909
2.75087918338
2.65296626536
2.557340603
2.46424191439
2.37387466281
2.28651736638
2.2022719253
2.12212284928
2.04619757891
1.9751632737
1.90977288659
1.85051719424
1.79796946576
1.75160616658
1.70932898137
1.66582258021
1.61289296369
1.53958562645
1.43557698174
1.29390658099
1.11313129513
0.893684048916
0.627208466996
0.302886256135
-0.0348169602244
-0.292057615526
-0.599622589331
-1.17777089145
-1.78519947272
16.1952972849
0.894759862023
5.55773044979
3.30542932136
3.51436944951
3.27690728845
3.26040062219
3.26787173775
3.30849539441
3.36488705546
3.42956200837
3.49851847833
3.5695211697
3.64131816243
3.71310681992
3.78424879378
3.85413580358
3.92213814938
3.98759147774
4.04980678187
4.10808587181
4.16173884903
4.21010208073
4.25255299102
4.28852196825
4.31750370597
4.33906337796
4.35285001228
4.35858464841
4.35611209321
4.34530348483
4.32651464547
4.30009477065
4.26586733586
4.22398296478
4.17477560458
4.11862682058
4.055940866
3.98716038709
3.91277490835
3.83331970653
3.74937473194
3.66156322581
3.57055362654
3.47704807193
3.38178274222
3.28550056122
3.18894360538
3.09282734866
2.997786086
2.90444680547
2.81325995651
2.72467497437
2.63887955314
2.55648506312
2.47736707797
2.40271431647
2.33275025249
2.26788492829
2.20924762109
2.15753468604
2.11417049079
2.08016745747
2.055977585
2.03977002824
2.02660555037
2.0071748481
1.96887853021
1.89749787616
1.78034750414
1.60779703716
1.3730903899
1.06947473238
0.691121576522
0.257961086717
-0.150744794875
-0.465770279783
-0.751059891446
-0.988291846177
-1.52121983856
17.0952002562
0.6639604858
6.08746861106
3.35420242983
3.7457545377
3.44158042227
3.44156038764
3.44254356332
3.47919135363
3.52819550793
3.58334446619
3.64112412581
3.69981598054
3.75863690184
3.81716493465
3.87506475446
3.93196716294
3.98742866041
4.04092755207
4.09188284211
4.13967460446
4.18366698925
4.22323226468
4.25776833707
4.28671423307
4.30956383006
4.3258753658
4.33528696774
4.33751073232
4.33238216939
4.3197737669
4.30006318648
4.27348753601
4.23984189498
4.19925991541
4.15206845928
4.09862899071
4.03931259936
3.97452365052
3.90471062319
3.83036296525
3.75201193264
3.67022961555
3.5856407474
3.49890524986
3.41073750599
3.32186704221
3.23304471196
3.14502241008
3.0584701238
2.97409874192
2.89236448462
2.8140196803
2.73885767112
2.66851551738
2.60307851385
2.5428477844
2.48902655194
2.44214730531
2.40408925835
2.3765307166
2.36156055954
2.36017076762
2.37137289906
2.38995102665
2.40570810985
2.40287360851
2.3620993288
2.26284377994
2.08637496765
1.81829835495
1.45235833281
0.996611462112
0.485244589163
-0.0063839944529
-0.383824577272
-0.624821316345
-0.787018955361
-0.872200506055
-1.23175706213
17.8592933727
0.471162776618
6.60308754397
3.37859747168
3.98286688714
3.59589974375
3.62099914929
3.61361154745
3.64723252361
3.68881346831
3.73453498837
3.78123219646
3.82774819107
3.87377625404
3.91927293079
3.96420430754
4.00843854295
4.05171575726
4.09365321888
4.13377315988
4.1715263678
4.20632364375
4.23756672849
4.26466810357
4.28707080484
4.30426387887
4.31579627669
4.32129372665
4.32046555818
4.31314438036
4.29925148385
4.27910299553
4.2528180737
4.22019992269
4.18137956436
4.13667357683
4.08642250478
4.03096659667
3.97067255196
3.90594699177
3.83723194183
3.76501013944
3.68979893634
3.61218019847
3.53276620882
3.4522482052
3.37134077653
3.29081341156
3.21144627869
3.13398227877
3.05930127694
2.98773931975
2.92065490263
2.85825284181
2.8014412076
2.75082244935
2.70679916339
2.67120788749
2.64572689062
2.63320621154
2.63614683407
2.65651799273
2.69351358887
2.7418849488
2.78944485189
2.81672628573
2.79757179193
2.70264902264
2.50400354929
2.18160812204
1.73176078886
1.17695178926
0.572539986779
0.0039692705663
-0.435097716207
-0.69541661962
-0.819322445751
-0.873441762424
-0.89939832946
-0.924895617476
18.495020635
0.32492458479
7.09187142493
3.38437563259
4.22339696513
3.73809651313
3.79771840416
3.77926748031
3.81110175541
3.84518455523
3.88171079353
3.91753846285
3.95214218697
3.98568407121
4.01849505374
4.0508416606
4.08282895726
4.11437816686
4.14524223903
4.17504014982
4.20328362843
4.22942176698
4.25287926405
4.27307700356
4.2894580012
4.30150218503
4.30874707596
4.31079942838
4.30736545541
4.2982612722
4.28349820375
4.26337747059
4.23783489227
4.20672131797
4.17016772178
4.12845490217
4.08188792904
4.03077806031
3.97546033099
3.91630490491
3.85370620172
3.78810066204
3.71994735264
3.64978722949
3.57817821197
3.5057994618
3.43334120572
3.36162166946
3.29141898893
3.22373069696
3.15953313496
3.09976033636
3.04540937448
2.9966658986
2.95445138593
2.91976216803
2.89406193134
2.88012492191
2.88084051794
2.89976454515
2.93913824914
2.99863669519
3.07223942493
3.14600075929
3.19611223322
3.19015576107
3.09075503507
2.86323704164
2.48556078261
1.96018043743
1.32417862549
0.651433742258
0.0386762413074
-0.426305856546
-0.704275702331
-0.825645617816
-0.855117637478
-0.816526678548
-0.705758182154
-0.607640532301
19.0119962496
0.229467504811
7.54334874713
3.37822549886
4.46391118114
3.8672024899
3.97075240172
3.93786694469
3.96947696101
3.99591132921
4.02360541939
4.04886946847
4.07193123518
4.0933944093
4.11396091331
4.13419798401
4.15444686626
4.17480715059
4.1951635478
4.21522253189
4.23454429596
4.25260849993
4.2688564572
4.28271209662
4.29361546219
4.30103479164
4.3044960731
4.30358168934
4.29800086165
4.28747824164
4.27222892535
4.25260661083
4.22824573928
4.19908643073
4.16528446499
4.12707029081
4.08469135094
4.03841805333
3.98854938582
3.93542301086
3.87938790392
3.82083983094
3.76017194874
3.69789883683
3.634517787
3.57070225732
3.5071050391
3.44478387707
3.38426165012
3.32747110168
3.27532132372
3.22809487128
3.18708685807
3.15264303384
3.12618602947
3.10955142553
3.10542187894
3.11758007254
3.14966320028
3.20468798612
3.28220246086
3.37583337114
3.46970642504
3.53678873793
3.53941618849
3.4346108662
3.1833640513
2.76386285166
2.18475256806
1.4940223003
0.77629961315
0.133410717119
-0.349808443388
-0.640146303451
-0.768701814921
-0.801019872694
-0.772098771638
-0.66365058451
-0.49024757033
-0.285951094589
19.4209165171
0.185526273421
7.94967488354
3.36691923104
4.70014296935
3.98313514564
4.13902517576
4.08797897303
4.12121239021
4.13974485914
4.15909823224
4.17417116976
4.18614968386
4.19602281549
4.20486511981
4.21354426789
4.22263580239
4.23241385788
4.2428901092
4.25384461932
4.26487251877
4.27547834519
4.28511423473
4.29320288441
4.29917967409
4.30250083253
4.30268167774
4.29929631522
4.29205095582
4.28066478552
4.26545373379
4.24670323762
4.223954762
4.19716181573
4.16651004116
4.13220621769
4.09444565858
4.05344960455
4.00946661121
3.96279549872
3.91372703655
3.86262912505
3.8098287428
3.75580151776
3.70099479541
3.64617432501
3.59181722794
3.53955968309
3.49020530904
3.44503847266
3.40524830904
3.37110715027
3.34405520415
3.32508679802
3.31638284969
3.32081217963
3.34216492251
3.38475348155
3.45161015667
3.54268105199
3.65105847954
3.75990689304
3.8398509171
3.85009752262
3.74392557218
3.47991204708
3.03641183484
2.42587429823
1.70208219868
0.954309275228
0.28508265617
-0.223012616411
-0.53692374371
-0.68191081739
-0.721068749281
-0.710387651046
-0.655410679173
-0.527197689874
-0.365008567533
0.0351852022069
19.7327831198
0.191213882877
8.30564250033
3.35666429657
4.92740501367
4.08664003744
4.30125262962
4.22844915977
4.26530668499
4.2755814636
4.28720630467
4.2925028274
4.29393021944
4.29276684891
4.29047061017
4.28820689456
4.2867809078
4.28663723733
4.28790737888
4.29042600866
4.29381142714
4.29759098574
4.30122158371
4.30412198227
4.30572123802
4.3054631368
4.30286017196
4.29749417515
4.28907905789
4.27736168049
4.26269530255
4.24525750596
4.22457769246
4.20059553004
4.17350243529
4.14349146931
4.1107247502
4.07538587503
4.03766116862
3.99781614068
3.95607552569
3.91275420439
3.86813140558
3.82267138304
3.77679091851
3.73134671479
3.68727969664
3.6458112722
3.60790898137
3.57480921289
3.54768349568
3.52731285567
3.51541974193
3.51377198764
3.52544038266
3.5542801126
3.60463118164
3.67999105105
3.78029018594
3.8988455925
4.01831907268
4.10854729766
4.12708727853
4.02536543648
3.76016764917
3.30918529107
2.68527457637
1.94321820339
1.17244929275
0.474449778513
-0.0690111825465
-0.422453081197
-0.603492920147
-0.665925350606
-0.668848032986
-0.645110610962
-0.584511777029
-0.461700308496
-0.322233409632
0.351599279976
19.9583378393
0.242824331433
8.60844420937
3.35269788554
5.14102151841
4.17912082134
4.45591667979
4.35845031741
4.4008627082
4.40246632095
4.4070763126
4.40303358954
4.39450377277
4.38290804993
4.3701129922
4.35757253597
4.34631461088
4.33695017692
4.32971976468
4.32448902931
4.3208940416
4.31848538712
4.31671773299
4.31500469071
4.31276430845
4.30942783273
4.30451418163
4.29763443407
4.28853257716
4.27702125597
4.2633581489
4.24766242856
4.2294914401
4.20876940379
4.18567122338
4.16035882348
4.13295458566
4.10362573525
4.07250285003
4.03979394741
4.00567219974
3.97038578768
3.93431483546
3.89763244569
3.86131877963
3.82597244953
3.7923399745
3.76189402001
3.7356753701
3.71509262386
3.7014326912
3.69597452963
3.70088035594
3.71879123577
3.75361208338
3.80966315537
3.89050683514
3.99650875679
4.12122745691
4.2478770946
4.34643884267
4.3744517733
4.2825942244
4.02640939782
3.58166999763
2.95893819448
2.21019101589
1.42203796535
0.694143463444
0.109400403713
-0.291432207291
-0.517369088445
-0.613237619433
-0.63386508483
-0.621327295776
-0.591286541057
-0.530004613511
-0.418667931686
-0.298532647297
0.659791042155
20.1077171869
0.335547722835
8.85731288434
3.35910353885
5.33669923206
4.26239618122
4.60130726737
4.47749793593
4.52704826684
4.51960204102
4.51797433811
4.50504179528
4.48719977924
4.46581449498
4.4432040521
4.42109202553
4.40072067175
4.38286396535
4.36785454405
4.35556445125
4.34565164492
4.33768951071
4.33112304955
4.32536072201
4.31979953409
4.31385958966
4.30707585202
4.29911714098
4.28974098574
4.27885353562
4.26669374466
4.25324325247
4.23808099455
4.2210871515
4.20240668301
4.18217964718
4.16049545828
4.13748799353
4.11325002534
4.08793202309
4.06180575901
4.0346724018
4.00753218346
3.98035765002
3.95358363269
3.92833068071
3.90533704285
3.88619349463
3.87219209066
3.86490171547
3.86579972319
3.87667478832
3.90026081239