/*--------------------------------*- C++ -*----------------------------------*\
| =========                 |                                                 |
| \\      /  F ield         | OpenFOAM: The Open Source CFD Toolbox           |
|  \\    /   O peration     | Version:  v1806                                 |
|   \\  /    A nd           | Web:      www.OpenFOAM.com                      |
|    \\/     M anipulation  |                                                 |
\*---------------------------------------------------------------------------*/
FoamFile
{
    version     2.0;
    format      ascii;
    class       surfaceScalarField;
    location    "500";
    object      phi;
}
// * * * * * * * * * * * * * * * * * * * * * * * * * * * * * * * * * * * * * //

dimensions      [0 3 -1 0 0 0 0];
oriented        oriented;


internalField   nonuniform List<scalar> 
12640
(
1.33728398011e-05
-1.33729154471e-05
2.07729172309e-05
-7.40016173726e-06
2.41034565747e-05
-3.33062956566e-06
1.70408819219e-05
7.06249364741e-06
-9.04874513054e-07
1.79456651336e-05
-2.9366404923e-05
2.84614339017e-05
-5.92894256208e-05
2.99229509224e-05
-8.96444929852e-05
3.03550077355e-05
-0.000119803682653
3.01591348774e-05
-0.000149281179835
2.94774465022e-05
-0.000177705993461
2.84247662829e-05
-0.000204814194044
2.71081560674e-05
-0.000230432605514
2.56183693211e-05
-0.000254462091938
2.40294459986e-05
-0.00027686180938
2.23996784419e-05
-0.000297635120709
2.07732731765e-05
-0.000316817483427
1.91823252501e-05
-0.000334466401983
1.7648881317e-05
-0.00035065336931
1.61869302499e-05
-0.000365457620229
1.48042136805e-05
-0.000378961450623
1.35037929857e-05
-0.000391246840879
1.22853524798e-05
-0.000402393121126
1.11462421187e-05
-0.000412475447332
1.00822876367e-05
-0.000421563884414
9.08839807164e-06
-0.000429722934993
8.15901111972e-06
-0.000437011381379
7.28840642316e-06
-0.000443482344372
6.47092259875e-06
-0.000449183477385
5.70109205538e-06
-0.000454157241411
4.9737226675e-06
-0.000458441214742
4.28393139324e-06
-0.000462068420648
3.62716363571e-06
-0.000465067597241
2.99913370646e-06
-0.000467463297592
2.39565715067e-06
-0.000469275811643
1.81247019077e-06
-0.000470521070427
1.24521483509e-06
-0.000471210418899
6.89304070175e-07
-0.000471350969161
1.40506102848e-07
-0.000470945774157
-4.05239379833e-07
-0.000469998136229
-9.4768178686e-07
-0.000468515907498
-1.48227270049e-06
-0.000466508588
-2.00736277057e-06
-0.000463984834095
-2.52379722861e-06
-0.000460951747242
-3.03312933147e-06
-0.000457414660309
-3.53712943736e-06
-0.000453377101767
-4.03760008638e-06
-0.000448840831822
-4.53631153026e-06
-0.000443805920689
-5.03495167975e-06
-0.000438270874958
-5.53508637593e-06
-0.000432232818919
-6.03809561458e-06
-0.000425687747888
-6.54511080122e-06
-0.000418630856347
-7.05693025192e-06
-0.000411056948761
-7.57394661629e-06
-0.00040296091905
-8.09606771602e-06
-0.000394338288037
-8.62266946188e-06
-0.000385185761261
-9.152564232e-06
-0.000375501774024
-9.68402523685e-06
-0.000365286962059
-1.02148489873e-05
-0.000354544505493
-1.07424941907e-05
-0.00034328026744
-1.1264274684e-05
-0.000331502665564
-1.17776391192e-05
-0.000319222193128
-1.22805086417e-05
-0.00030645053173
-1.27716981783e-05
-0.000293199180694
-1.32513867195e-05
-0.000279477560857
-1.3721656034e-05
-0.000265290537624
-1.41870582873e-05
-0.000250635352424
-1.46552206974e-05
-0.000235497964732
-1.51374220243e-05
-0.000219848863465
-1.56491359878e-05
-0.000203638511304
-1.62103856706e-05
-0.000186792902845
-1.68456426018e-05
-0.000169209863286
-1.75830723918e-05
-0.000150757458782
-1.84524381516e-05
-0.000131278986452
-1.94785062744e-05
-0.000110615588058
-2.06634327302e-05
-8.8659261969e-05
-2.19563640958e-05
-6.54264725324e-05
-2.32328296417e-05
-4.1173486971e-05
-2.42530340763e-05
-1.71804296946e-05
-2.39930878776e-05
-1.71804697995e-05
9.8025776527e-06
-2.31756709211e-05
7.38282615207e-06
-4.98056239763e-06
-1.16529429745e-05
1.57050473542e-05
-3.97413582825e-05
3.51508456422e-05
-6.78862952259e-05
4.60905569062e-05
-9.46311950687e-05
5.52062960216e-05
-0.00012391798167
5.9209700377e-05
-0.000154050413691
6.04874036206e-05
-0.00018403884864
6.01475332449e-05
-0.000213247424981
5.86859870008e-05
-0.000241257736419
5.64350420006e-05
-0.000267795779154
5.36461638129e-05
-0.00029269449307
5.05170485606e-05
-0.000315867953353
4.72028719648e-05
-0.000337291201617
4.38228925895e-05
-0.000356983810576
4.04658478931e-05
-0.000374996501809
3.71949822679e-05
-0.00039140045802
3.40528027382e-05
-0.000406279012637
3.10654499862e-05
-0.000419721391578
2.82465568129e-05
-0.000431818157184
2.56005226699e-05
-0.000442658029162
2.31251873602e-05
-0.000452325768285
2.08139441103e-05
-0.000460900872417
1.86573532891e-05
-0.000468456855185
1.66443424657e-05
-0.000475060951078
1.47630671479e-05
-0.000480774100958
1.30015166986e-05
-0.000485651137303
1.134791769e-05
-0.000489741076989
9.79099090162e-06
-0.00049308748885
8.32009188546e-06
-0.000495728888831
6.92528932388e-06
-0.00049769917593
5.59740674344e-06
-0.000499028066406
4.32798094014e-06
-0.000499741343327
3.10888871416e-06
-0.000499860703817
1.93178630338e-06
-0.000499404183237
7.88647766382e-07
-0.000498387315689
-3.27608420896e-07
-0.000496834937462
-1.41191888385e-06
-0.000494779835711
-2.46038591223e-06
-0.000492246540958
-3.48102309854e-06
-0.000489248699673
-4.48015826921e-06
-0.000485793736575
-5.46237192936e-06
-0.000481886358372
-6.43121896899e-06
-0.00047752954596
-7.38998707951e-06
-0.000472724855825
-8.3418621875e-06
-0.000467472522217
-9.2899781545e-06
-0.000461771475912
-1.02373994306e-05
-0.000455619390674
-1.11870804316e-05
-0.000449012740778
-1.21417768402e-05
-0.000441946940879
-1.31039381008e-05
-0.000434416533427
-1.40755578771e-05
-0.000426415485226
-1.50580202159e-05
-0.000417937544634
-1.60519260407e-05
-0.000408976706289
-1.70569471459e-05
-0.000399527714633
-1.80716993339e-05
-0.000389586631554
-1.90936878559e-05
-0.000379151375691
-2.01193188409e-05
-0.000368222235984
-2.11440287767e-05
-0.000356802247119
-2.21625203846e-05
-0.000344897413619
-2.31691477879e-05
-0.000332516662312
-2.41584273058e-05
-0.000319671507188
-2.51257027693e-05
-0.000306375314585
-2.60679270784e-05
-0.000292642164933
-2.69845745721e-05
-0.000278485221695
-2.78786348055e-05
-0.000263914626856
-2.87576903045e-05
-0.000248934858889
-2.96350232501e-05
-0.000233541646091
-3.05306707476e-05
-0.000217718438493
-3.14723770341e-05
-0.000201432524796
-3.24963338418e-05
-0.00018463117731
-3.36470222374e-05
-0.000167238419435
-3.49758631749e-05
-0.000149153312736
-3.6537575737e-05
-0.000130252259426
-3.83795904628e-05
-0.000110398306849
-4.05174165282e-05
-8.94623429195e-05
-4.28923597313e-05
-6.73922260776e-05
-4.53029772199e-05
-4.44561090555e-05
-4.71891784857e-05
-2.16567285951e-05
-4.67925137729e-05
-3.88372081973e-05
-7.68990445929e-06
-1.54857701916e-05
-2.89049647016e-05
1.62344311377e-05
-5.48856548598e-05
4.16856967713e-05
-7.99488380373e-05
6.02139975306e-05
-0.000107175461569
7.33171521345e-05
-0.000134153075166
8.21838824721e-05
-0.000161651222071
8.67078208873e-05
-0.000189223125342
8.8059280106e-05
-0.000216248487755
8.71728683974e-05
-0.000242252852488
8.46903236456e-05
-0.000266916686249
8.10988471112e-05
-0.000290044897222
7.67743454553e-05
-0.000311537437326
7.20095587882e-05
-0.000331364531571
6.7029935712e-05
-0.000349546477975
6.20048078439e-05
-0.000366137470652
5.7056808754e-05
-0.000381212975792
5.22704547766e-05
-0.00039486019923
4.76999928142e-05
-0.0004071711593
4.33763757351e-05
-0.000418237868918
3.9313231355e-05
-0.000428149157292
3.55117749236e-05
-0.00043698871434
3.19647075796e-05
-0.000444834012799
2.86592046747e-05
-0.000451755835691
2.55791376737e-05
-0.000457818205373
2.27066725756e-05
-0.000463078563641
2.00233853315e-05
-0.000467588103604
1.75110154897e-05
-0.000471392182231
1.51519547039e-05
-0.000474530771557
1.29295374704e-05
-0.00047703891005
1.08281872458e-05
-0.000478947170649
8.83350561803e-06
-0.000480282128826
6.93232031717e-06
-0.000481066835002
5.11264125212e-06
-0.000481321114374
3.36312190261e-06
-0.000481061082566
1.67170716249e-06
-0.00048029959334
2.71114423119e-08
-0.000479061409673
-1.56583983314e-06
-0.000477365882192
-3.10749338017e-06
-0.000475215436633
-4.6108789636e-06
-0.000472615207196
-6.08129910311e-06
-0.00046957072668
-7.524685744e-06
-0.000466086880454
-8.94626401985e-06
-0.000462167385816
-1.03507598034e-05
-0.000457814749207
-1.17426686611e-05
-0.000453030264971
-1.31263917068e-05
-0.000447813996768
-1.45062903322e-05
-0.00044216475854
-1.58866819608e-05
-0.000436080109701
-1.72717722292e-05
-0.000429556396254
-1.86655336326e-05
-0.000422588851444
-2.00715249329e-05
-0.000415171783239
-2.14926685872e-05
-0.000407298853875
-2.2930990828e-05
-0.000398963467151
-2.43873546106e-05
-0.000390159251974
-2.58612029968e-05
-0.000380880637018
-2.73503556651e-05
-0.000371123480269
-2.88508848837e-05
-0.000360885722352
-3.03571177899e-05
-0.000350168001806
-3.1861789292e-05
-0.00033897417896
-3.33563839342e-05
-0.000327311690001
-3.48316763601e-05
-0.000315191669941
-3.62784876126e-05
-0.000302628766345
-3.76886454412e-05
-0.000289640593366
-3.90561396063e-05
-0.000276246769874
-4.03784363442e-05
-0.000262467511484
-4.16579317632e-05
-0.000248321771919
-4.29034670977e-05
-0.000233824886992
-4.41319455041e-05
-0.000218985809679
-4.53697839942e-05
-0.000203804058512
-4.66541640499e-05
-0.000188266079568
-4.80343471941e-05
-0.000172341581508
-4.95715544354e-05
-0.000155980387635
-5.13370896211e-05
-0.000139109407027
-5.34085882322e-05
-0.000121630325764
-5.58587026148e-05
-0.000103419176668
-5.87285948056e-05
-8.43343270552e-05
-6.19772395629e-05
-6.42629105394e-05
-6.53744245915e-05
-4.3234253063e-05
-6.82178706609e-05
-2.15423049573e-05
-6.84844765945e-05
-6.03795418252e-05
-2.38884486066e-05
8.40247852821e-06
-5.16222276848e-05
4.39681485133e-05
-7.7912965638e-05
6.79764046821e-05
-0.000104133522483
8.64345298352e-05
-0.000130422447077
9.96060539062e-05
-0.000156277784374
0.000108039198213
-0.000181678359775
0.00011210837503
-0.000206408626061
0.000112789524823
-0.000230174894987
0.00011093911481
-0.000252734496549
0.000107249901656
-0.000273925354027
0.000102289679813
-0.000293663116616
9.65120821233e-05
-0.000311925941465
9.02723565263e-05
-0.000328737103347
8.38410693382e-05
-0.000344149490818
7.74171659161e-05
-0.000358233246178
7.11405335467e-05
-0.000371066658916
6.5103835825e-05
-0.000382729918752
5.936321976e-05
-0.000393301145367
5.39475683697e-05
-0.000402854095605
4.88661464134e-05
-0.000411457021415
4.41146645434e-05
-0.000419172264765
3.96799135935e-05
-0.000426056288792
3.55431904751e-05
-0.000432159941223
3.16827508066e-05
-0.000437528823457
2.80755147416e-05
-0.00044220369721
2.46982179881e-05
-0.000446220883806
2.15281602914e-05
-0.000449612639147
1.85436671998e-05
-0.000452407504178
1.57243589881e-05
-0.000454630668406
1.30513068821e-05
-0.00045630430236
1.05070943534e-05
-0.00045744783094
8.07580255468e-06
-0.000458078114526
5.74287780522e-06
-0.000458209852678
3.49481198183e-06
-0.000457857441464
1.31924742115e-06
-0.000457038013464
-7.92365633858e-07
-0.000455762417662
-2.84148421569e-06
-0.00045403665994
-4.83329981124e-06
-0.000451869330948
-6.77825604689e-06
-0.000449266965071
-8.68371311432e-06
-0.000446235162852
-1.05565353394e-05
-0.000442778556885
-1.24029173302e-05
-0.000438900747048
-1.42286161185e-05
-0.000434604277705
-1.60391844125e-05
-0.000429890586953
-1.78401279442e-05
-0.000424759937061
-1.96369856475e-05
-0.000419211337514
-2.14353259953e-05
-0.000413242491764
-2.32406624637e-05
-0.000406849786655
-2.50582823306e-05
-0.000400028357851
-2.68929974249e-05
-0.000392772247689
-2.87488216369e-05
-0.000385074682449
-3.06285991889e-05
-0.000376928473621
-3.25336058767e-05
-0.000368326552918
-3.44631665007e-05
-0.000359262621616
-3.64143291907e-05
-0.000349731895421
-3.83816537485e-05
-0.000339731894501
-4.03571608475e-05
-0.000329263229338
-4.23304970334e-05
-0.000318330306084
-4.42893491926e-05
-0.000306941881577
-4.62201432033e-05
-0.000295111384703
-4.81090261229e-05
-0.000282856936846
-4.99431350826e-05
-0.000270200998031
-5.1712119346e-05
-0.000257169620054
-5.34098551914e-05
-0.000243791215546
-5.5036376151e-05
-0.000230094967555
-5.65997547316e-05
-0.000216108688029
-5.81182636095e-05
-0.000201856234415
-5.9622275783e-05
-0.000187355013912
-6.11554216322e-05
-0.000172612355716
-6.27770418971e-05
-0.000157621714446
-6.45622310399e-05
-0.000142359976891
-6.65988617006e-05
-0.00012678312021
-6.89854781189e-05
-0.000110819485269
-7.18223691124e-05
-9.4362827897e-05
-7.51852837851e-05
-7.72671463277e-05
-7.90729514692e-05
-5.93528249279e-05
-8.32887764733e-05
-4.04174846334e-05
-8.71532335937e-05
-2.03564254982e-05
-8.85455813598e-05
-8.07359782298e-05
-3.33793134987e-05
4.17818526134e-05
-6.21665693107e-05
7.27553928107e-05
-8.98051688418e-05
9.56149837771e-05
-0.000116466507504
0.000113095847369
-0.000142062648315
0.000125202174334
-0.000166494381779
0.000132470912065
-0.000189817785045
0.000135431758984
-0.000211986090987
0.000134957811109
-0.000232918325823
0.000131871329192
-0.000252554787836
0.000126886342056
-0.000270871083654
0.000120605952723
-0.00028787831018
0.000113519284328
-0.000303615053146
0.000106009073743
-0.000318137312367
9.83633013614e-05
-0.0003315095897
9.07894146006e-05
-0.000343798365377
8.34292791521e-05
-0.0003550680283
7.63734672371e-05
-0.000365378781583
6.96739401672e-05
-0.000374785896126
6.33546486471e-05
-0.000383339747
5.74199617613e-05
-0.000391086215202
5.18610959316e-05
-0.00039806719022
4.66608506853e-05
-0.000404321034384
4.17969955571e-05
-0.000409882953425
3.7244629805e-05
-0.000414785267628
3.29777878475e-05
-0.000419057602577
2.89705109702e-05
-0.000422727025868
2.51975405767e-05
-0.000425818148669
2.16347461352e-05
-0.000428353220233
1.825938561e-05
-0.000430352241183
1.5050282028e-05
-0.000431833135308
1.19879415944e-05
-0.000432811879346
9.05449880672e-06
-0.00043330244393
6.23339342868e-06
-0.000433317133263
3.50945134807e-06
-0.000432868845519
8.70909167539e-07
-0.000431971778251
-1.68948327767e-06
-0.000430636544452
-4.17676829501e-06
-0.000428869680844
-6.60021321375e-06
-0.000426677764329
-8.97022215766e-06
-0.000424066368012
-1.129515843e-05
-0.000421040469465
-1.35824826087e-05
-0.000417604418602
-1.5839016236e-05
-0.000413761848483
-1.80712339651e-05
-0.000409515566251
-2.02855136599e-05
-0.000404867421017
-2.2488319892e-05
-0.000399818151371
-2.46863013126e-05
-0.000394367232245
-2.68862909073e-05
-0.00038851274261
-2.90951972627e-05
-0.000382251286474
-3.13197835239e-05
-0.000375577995515
-3.35663329484e-05
-0.000368486647626
-3.58402141476e-05
-0.000360969924978
-3.81453661252e-05
-0.00035301983486
-4.04837405066e-05
-0.000344628298487
-4.28547471913e-05
-0.000335787903063
-4.5254769267e-05
-0.000326492786555
-4.76768147753e-05
-0.000316739612996
-5.01103792606e-05
-0.000306528568022
-5.2541586669e-05
-0.000295864302189
-5.49536598846e-05
-0.000284756722715
-5.73277671624e-05
-0.000273221552521
-5.96442407673e-05
-0.000261280576888
-6.18841545614e-05
-0.000248961462687
-6.4031277111e-05
-0.000236297243274
-6.60741173904e-05
-0.000223325146887
-6.80085148361e-05
-0.000210085261632
-6.98396814267e-05
-0.000196618576005
-7.15849900504e-05
-0.000182964137421
-7.32767543099e-05
-0.00016915751268
-7.49620856267e-05
-0.000155226891094
-7.67077019058e-05
-0.00014118829188
-7.86008678629e-05
-0.000127044240553
-8.07429495868e-05
-0.000112779545573
-8.32502083518e-05
-9.83508607398e-05
-8.62510884628e-05
-8.36766842868e-05
-8.98594923102e-05
-6.86217325558e-05
-9.41279357473e-05
-5.29739027789e-05
-9.89366376161e-05
-3.63936940243e-05
-0.000103733481016
-1.85004753706e-05
-0.000106438817849
-9.92364798821e-05
-3.45122946615e-05
7.62940303413e-05
-6.55845146159e-05
0.000103827579304
-9.41795236606e-05
0.000124209970993
-0.000120799309544
0.000139715613456
-0.000145587830215
0.000149990676128
-0.000168647822634
0.000155530886176
-0.000190145342623
0.000156929260821
-0.000210184415755
0.000154996865701
-0.000228838018794
0.000150524912855
-0.00024617569926
0.000144224001979
-0.000262270220186
0.000136700451718
-0.000277197315257
0.000128446355952
-0.00029103191905
0.000119843652501
-0.000303844282298
0.000111175637944
-0.000315697489435
0.00010264259344
-0.000326646680989
9.43784407657e-05
-0.000336739599882
8.64663545923e-05
-0.000346017860238
7.89521673957e-05
-0.000354518404461
7.18551582439e-05
-0.000362274798675
6.51763198788e-05
-0.000369318203092
5.89044629117e-05
-0.000375677990886
5.30205997364e-05
-0.000381382068518
4.75010332832e-05
-0.000386456979184
4.23194994095e-05
-0.000390927869641
3.7448636202e-05
-0.000394818388753
3.28609868834e-05
-0.000398150568908
2.85296765068e-05
-0.000400944722007
2.44288538781e-05
-0.000403219349697
2.0533966871e-05
-0.000404991133303
1.68220180445e-05
-0.000406275001339
1.32717609291e-05
-0.000407084231046
9.86367854855e-06
-0.000407430413516
6.57952469782e-06
-0.000407323194699
3.40218041757e-06
-0.000406771115852
3.18777405085e-07
-0.000405788133035
-2.67251871317e-06
-0.000404385500157
-5.57945326907e-06
-0.000402567110562
-8.41865447496e-06
-0.00040033798327
-1.11994005513e-05
-0.000397702989755
-1.39302025568e-05
-0.000394666822823
-1.66186995267e-05
-0.000391233903529
-1.92719849964e-05
-0.000387408254488
-2.18969318398e-05
-0.000383193328839
-2.45004876537e-05
-0.000378591796025
-2.70899004723e-05
-0.000373605297187
-2.96728475219e-05
-0.000368234190805
-3.22574441911e-05
-0.00036247731866
-3.48521160761e-05
-0.000356331826992
-3.74653215629e-05
-0.000349793083761
-4.01051225283e-05
-0.000342854732203
-4.27786119655e-05
-0.000335508919203
-4.54912255754e-05
-0.000327746727455
-4.82459787967e-05
-0.000319558831604
-5.10426899196e-05
-0.000310936373875
-5.3877274047e-05
-0.000301872030701
-5.67412053386e-05
-0.000292361222367
-5.96212350806e-05
-0.000282403378222
-6.2499478463e-05
-0.000272003177902
-6.5353907706e-05
-0.000261171640875
-6.81593515494e-05
-0.000249926944651
-7.08889838999e-05
-0.000238294976017
-7.35161696424e-05
-0.000226309207392
-7.60170915237e-05
-0.000214010569804
-7.83728000657e-05
-0.000201446063032
-8.05730659686e-05
-0.000188667670384
-8.26181176631e-05
-0.000175730779306
-8.45219239285e-05
-0.000162689947052
-8.63176287956e-05
-0.000149599186011
-8.80528879852e-05
-0.00013650791761
-8.97990112932e-05
-0.000123452958881
-9.16558666093e-05
-0.000110458775759
-9.37371721615e-05
-9.75363827924e-05
-9.61726395862e-05
-8.46684178109e-05
-9.91190899252e-05
-7.17990415932e-05
-0.000102728904783
-5.88140127081e-05
-0.000107112998399
-4.55044082051e-05
-0.000112246276487
-3.14867641133e-05
-0.000117751148621
-1.61682811207e-05
-0.000121757347242
-0.00011540477187
-3.38674723766e-05
0.000110161579982
-6.52325757028e-05
0.000135192687995
-9.38426232203e-05
0.000152820007032
-0.000119950089432
0.000165823063721
-0.0001437732577
0.000173813827414
-0.000165531507557
0.000177289118901
-0.000185463042852
0.000176860778734
-0.000203770669004
0.000173304473928
-0.000220627669025
0.000167381894034
-0.000236186211203
0.000159782524129
-0.000250578685518
0.000151092904588
-0.000263917586416
0.000141785233854
-0.000276295412422
0.000132221453838
-0.000287785914977
0.000122666114114
-0.000298446739613
0.000113303389916
-0.000308322895599
0.000104254566832
-0.000317450338606
9.55937659038e-05
-0.000325859106757
8.7360902146e-05
-0.000333575717816
7.95717342178e-05
-0.000340624775365
7.22253407799e-05
-0.000347029887539
6.53095369204e-05
-0.000352814070215
5.88047428782e-05
-0.000357999808235
5.26867304349e-05
-0.00036260892365
4.6928572749e-05
-0.000366662361069
4.15020303158e-05
-0.000370179952879
3.6378534224e-05
-0.000373180204248
3.1529882156e-05
-0.000375680124075
2.69287267374e-05
-0.000377695147773
2.25489422685e-05
-0.000379239066924
1.83658875872e-05
-0.00038032400753
1.43566505776e-05
-0.000380960549942
1.05001685422e-05
-0.000381157919793
6.77684047148e-06
-0.000380924185191
3.16839042048e-06
-0.000380266752968
-3.38710273896e-07
-0.000379194398656
-3.74492802839e-06
-0.000377713714456
-7.06019187044e-06
-0.000375828334282
-1.03040883686e-05
-0.00037354254108
-1.34852468017e-05
-0.000370860833742
-1.66119622222e-05
-0.000367787942244
-1.96916426667e-05
-0.000364328745585
-2.27312325981e-05
-0.000360488111591
-2.57376161491e-05
-0.00035627065774
-2.87179912159e-05
-0.000351680443854
-3.16801635762e-05
-0.000346720614454
-3.46327256904e-05
-0.000341393017755
-3.75850893832e-05
-0.000335697836489
-4.05473456069e-05
-0.000329633275478
-4.35299308378e-05
-0.000323195356887
-4.65430894234e-05
-0.000316377879347
-4.95961380758e-05
-0.00030917259245
-5.26965613103e-05
-0.000301569629857
-5.58489906689e-05
-0.000293558236456
-5.90541329672e-05
-0.000285127797753
-6.23077628347e-05
-0.000276269125429
-6.55999280124e-05
-0.000266975971603
-6.89144394661e-05
-0.000257246622532
-7.22288780521e-05
-0.000247085515012
-7.55150655493e-05
-0.000236504719031
-7.874019744e-05
-0.000225524972645
-8.18687795979e-05
-0.000214176800492
-8.48643904488e-05
-0.00020250006095
-8.76938789026e-05
-0.000190544742728
-9.03281654211e-05
-0.000178368841088
-9.27490140062e-05
-0.000166037419837
-9.49495845412e-05
-0.000153622446936
-9.69369421734e-05
-0.000141194896876
-9.87452231493e-05
-0.000128827774416
-0.000100420055071
-0.000116593892026
-0.000102032937355
-0.000104552123671
-0.000103697678956
-9.27457264704e-05
-0.000105543612003
-8.12098643734e-05
-0.000107708543387
-6.99503255884e-05
-0.00011037866936
-5.8934140512e-05
-0.000113745127481
-4.80714366539e-05
-0.000117975739448
-3.71743474114e-05
-0.000123143398171
-2.58847554036e-05
-0.000129040782314
-1.34595359913e-05
-0.000134182584702
-0.000128864331503
-3.2552814857e-05
0.000142714335038
-6.29921042945e-05
0.000165631961873
-9.07745936879e-05
0.000180602483768
-0.000115926774531
0.000190975230446
-0.000138628820798
0.000196515858581
-0.000159126026532
0.00019778630891
-0.000177687243059
0.000195421978979
-0.000194565522041
0.000190182735825
-0.000209987177913
0.000182803531809
-0.000224147810365
0.000173943137203
-0.000237209491157
0.000164154564559
-0.000249300982531
0.00015387670278
-0.000260520569045
0.000143441016192
-0.00027094098434
0.00013308650342
-0.000280615328496
0.000122977706233
-0.000289582881577
0.000113222090166
-0.000297874036654
0.000103884889361
-0.000305513997715
9.50008297132e-05
-0.000312525237587
8.65829388164e-05
-0.000318928921012
7.86289871948e-05
-0.000324745574667
7.11261519624e-05
-0.000329995274378
6.40544024265e-05
-0.00033469756372
5.73889781924e-05
-0.000338871252982
5.11022190122e-05
-0.000342534189202
4.51649221863e-05
-0.000345703042904
3.95473421599e-05
-0.000348393131981
3.42199240148e-05
-0.000350618298072
2.91538440609e-05
-0.000352390826094
2.43214199217e-05
-0.000353721419284
1.96964287788e-05
-0.000354619180114
1.52543576251e-05
-0.000355091616365
1.09725490173e-05
-0.000355145045167
6.83021191277e-06
-0.000354785952085
2.80923856366e-06
-0.000354021826814
-1.10289486583e-06
-0.000352853691958
-4.91312117647e-06
-0.000351281133329
-8.6328078507e-06
-0.000349309065674
-1.22762124232e-05
-0.000346941478327
-1.58528896346e-05
-0.000344182783484
-1.93707116047e-05
-0.000341038046417
-2.28364334099e-05
-0.000337512982941
-2.62563488991e-05
-0.000333613781973
-2.96368692346e-05
-0.000329346797552
-3.29850270943e-05
-0.000324718136577
-3.63088755238e-05
-0.000319733167285
-3.96177455813e-05
-0.000314395981163
-4.29223259023e-05
-0.000308708850639
-4.62345265099e-05
-0.000302671738024
-4.95670939596e-05
-0.00029628192214
-5.29329561284e-05
-0.000289533817735
-5.6344293711e-05
-0.000282419062655
-5.98113681345e-05
-0.000274926927182
-6.33411784117e-05
-0.00026704510653
-6.69360063852e-05
-0.000258760943596
-7.05919789373e-05
-0.000250062957691
-7.42979672963e-05
-0.000240942759956
-7.80346906268e-05
-0.000231397035241
-8.17746559007e-05
-0.000221429586773
-8.54825667763e-05
-0.000211053455527
-8.91163806847e-05
-0.000200291817628
-9.2630468846e-05
-0.000189180511419
-9.59757472114e-05
-0.00017776607124
-9.91083687825e-05
-0.00016610878967
-0.000101985496364
-0.000154278986098
-0.000104578866111
-0.000142355602993
-0.0001068730164
-0.000130429910012
-0.0001088626833
-0.000118591485294
-0.000110583696383
-0.000106932343887
-0.000112079244567
-9.55504146903e-05
-0.000113414914894
-8.45332091865e-05
-0.000114714932795
-7.39422361231e-05
-0.00011613463279
-6.38358095178e-05
-0.00011781501658
-5.42424369918e-05
-0.000119972084963
-4.51492625974e-05
-0.000122838343562
-3.64897723249e-05
-0.000126635266403
-2.80985260168e-05
-0.000131534682314
-1.96811164841e-05
-0.000137458213529
-1.04199320517e-05
-0.000143443813544
-0.000139284270465
-3.07394468275e-05
0.000173453857317
-5.97009678751e-05
0.000194593497303
-8.61695056831e-05
0.00020707101829
-0.0001100676407
0.000214873355734
-0.000131531661801
0.000217979867225
-0.000150792242959
0.000217046876249
-0.00016811819279
0.000212747913921
-0.000183777247643
0.000205841774757
-0.000198013903721
0.000197040170742
-0.000211038329518
0.000186967544516
-0.000223021184334
0.000176137399346
-0.000234094346599
0.000164949843376
-0.000244355667781
0.000153702313901
-0.00025387592025
0.000142606730557
-0.000262706148487
0.000131807907168
-0.000270884161667
0.000121400074071
-0.00027843954236
0.000111440238758
-0.000285397077978
0.000101958332077
-0.000291778846921
9.29646725557e-05
-0.000297605318189
8.44554214264e-05
-0.000302895817428
7.6416612375e-05
-0.000307668638727
6.88271832397e-05
-0.000311940993184
6.16612905164e-05
-0.00031572890535
5.48900874718e-05
-0.000319047111319
4.84830828128e-05
-0.0003219089766
4.24091604198e-05
-0.000324326433009
3.66373315732e-05
-0.000326309933193
3.11372934301e-05
-0.000327868428607
2.58798624584e-05
-0.000329009356555
2.08373016952e-05
-0.00032973859032
1.59835341558e-05
-0.000330060429949
1.12943290286e-05
-0.000329978118614
6.74783786647e-06
-0.000329494836044
2.32589225079e-06
-0.000328612485462
-1.98530879854e-06
-0.00032733064395
-6.19502498308e-06
-0.000325648493103
-1.03150197148e-05
-0.000323567546826
-1.43572184599e-05
-0.000321090387439
-1.83301074682e-05
-0.00031822097522
-2.22401810906e-05
-0.000314964713644
-2.60927510716e-05
-0.000311328367009
-2.98927506672e-05
-0.000307319816278
-3.36454741879e-05
-0.000302947664518
-3.73572324446e-05
-0.000298220706365
-4.10358867354e-05
-0.000293147284346
-4.46912203929e-05
-0.000287734564406
-4.83350985632e-05
-0.000281987778857
-5.19813649137e-05
-0.000275909503817
-5.5645422193e-05
-0.000269499056438
-5.93434571742e-05
-0.00026275211184
-6.30912925344e-05
-0.000255660654425
-6.69028803755e-05
-0.000248213326507
-7.0788561663e-05
-0.000240396241305
-7.4753147375e-05
-0.00023219448569
-7.87937904935e-05
-0.000223593854383
-8.28986546251e-05
-0.000214583325999
-8.70452746156e-05
-0.000205157512964
-9.12005241772e-05
-0.000195319015728
-9.53211184126e-05
-0.000185081938416
-9.93535117558e-05
-0.000174471316359
-0.000103241144084
-0.000163529355881
-0.000106917759967
-0.000152309049968
-0.000110328727286
-0.000140882147106
-0.000113412451203
-0.000129332660441
-0.000116128405798
-0.000117753682666
-0.000118452047412
-0.00010625711886
-0.00012035930082
-9.49562728312e-05
-0.000121884596342
-8.39635885043e-05
-0.000123071982504
-7.33987435645e-05
-0.000123979814952
-6.3389203952e-05
-0.000124724526365
-5.40191083736e-05
-0.000125504781862
-4.53690150861e-05
-0.000126465159033
-3.74937422873e-05
-0.000127847404577
-3.0401228813e-05
-0.000129930897866
-2.40464122731e-05
-0.000132990122105
-1.82832767967e-05
-0.00013729784774
-1.28851015714e-05
-0.000142856430238
-7.049256713e-06
-0.000149279668987
-0.00014633354712
-2.86389256098e-05
0.000202092741339
-5.58427046173e-05
0.000221797270038
-8.07506999128e-05
0.000231979008537
-0.000103234136854
0.000237356784829
-0.000123396546704
0.000238142266974
-0.000141443418515
0.000235093736302
-0.00015762721326
0.000228931695607
-0.000172208182611
0.000220422729739
-0.000185426692308
0.000210258664751
-0.00019748903074
0.000199029865771
-0.00020856147679
0.000187209826661
-0.000218771626967
0.000175159973075
-0.000228214088068
0.000163144752716
-0.000236958005972
0.000151350624214
-0.00024505442114
0.000139904296095
-0.000252542306613
0.00012888793121
-0.000259452912551
0.000118350814294
-0.000265812554426
0.000108317941448
-0.000271644217656
9.87963012623e-05
-0.000276968388034
8.97795552794e-05
-0.000281803445457
8.12516313771e-05
-0.000286165852881
7.31895503588e-05
-0.000290070272769
6.55656682681e-05
-0.000293529669806
5.83494404811e-05
-0.000296555412768
5.15087797695e-05
-0.000299157367771
4.50110672596e-05
-0.00030134396239
3.88238756302e-05
-0.000303122211681
3.29154895853e-05
-0.000304497721385
2.72553162193e-05
-0.000305474668001
2.18141895521e-05
-0.000306055704391
1.65645085858e-05
-0.00030624180047
1.14803594591e-05
-0.000306032568765
6.53853856483e-06
-0.000305427450736
1.72070395566e-06
-0.000304425055716
-2.98777340726e-06
-0.00030302287515
-7.59727322955e-06
-0.000301217754207
-1.21202064942e-05
-0.000299008702035
-1.65663346172e-05
-0.000296396775345
-2.09420964408e-05
-0.000293385269716
-2.52517472986e-05
-0.000289979775715
-2.94983042495e-05
-0.000286188074934
-3.3684509291e-05
-0.000282019854546
-3.78137514786e-05
-0.00027748623959
-4.18909034762e-05
-0.00027259915183
-4.59230301262e-05
-0.000267370509917
-4.99199176979e-05
-0.000261811301136
-5.38943627791e-05
-0.000255930572695
-5.78621490644e-05
-0.000249734421878
-6.18416291684e-05
-0.000243225095428
-6.5852840296e-05
-0.000236400319389
-6.99161258379e-05
-0.000229253046519
-7.40502109204e-05
-0.000221771714782
-7.82699515114e-05
-0.000213940906828
-8.2584013433e-05
-0.000205743387545
-8.69913679586e-05
-0.000197161826823
-9.14802729543e-05
-0.000188182106994
-9.60250517136e-05
-0.00017879648094
-0.000100586206761
-0.000169005464405
-0.000105112190714
-0.000158824923479
-0.000109534108391
-0.000148280382888
-0.000113785739806
-0.000137422085839
-0.000117776112897
-0.000126308667217
-0.000121442202225
-0.000115024170525
-0.000124697005093
-0.00010366718496