/*--------------------------------*- C++ -*----------------------------------*\
| =========                 |                                                 |
| \\      /  F ield         | OpenFOAM: The Open Source CFD Toolbox           |
|  \\    /   O peration     | Version:  v1806                                 |
|   \\  /    A nd           | Web:      www.OpenFOAM.com                      |
|    \\/     M anipulation  |                                                 |
\*---------------------------------------------------------------------------*/
FoamFile
{
    version     2.0;
    format      ascii;
    class       surfaceScalarField;
    location    "500";
    object      phi;
}
// * * * * * * * * * * * * * * * * * * * * * * * * * * * * * * * * * * * * * //

dimensions      [0 3 -1 0 0 0 0];
oriented        oriented;


internalField   nonuniform List<scalar> 
12640
(
2.36970916455e-05
-2.36970929307e-05
3.40346670987e-05
-1.0337578026e-05
3.72802250969e-05
-3.24556067208e-06
2.80582321904e-05
9.22199066881e-06
6.43626251105e-06
2.16219671325e-05
-2.56648034939e-05
3.2101063293e-05
-5.79904817569e-05
3.23256759684e-05
-8.95500291925e-05
3.15595453429e-05
-0.000120516762192
3.0966731016e-05
-0.000150628246568
3.01114824914e-05
-0.000179593804697
2.89655563497e-05
-0.000207187592707
2.75937863293e-05
-0.000233256986338
2.60693920471e-05
-0.000257714733647
2.44577458088e-05
-0.000280526868665
2.28121335935e-05
-0.000301700391476
2.11735214486e-05
-0.000321272128884
1.95717361004e-05
-0.00033929929428
1.80271641311e-05
-0.00035585185736
1.65525618498e-05
-0.000371006626503
1.51547679402e-05
-0.000384842841136
1.38362134478e-05
-0.000397439029172
1.25961868653e-05
-0.000408870880788
1.14318504497e-05
-0.000419209909586
1.03390276345e-05
-0.000428522702779
9.3127920212e-06
-0.00043687059708
8.34789312151e-06
-0.000444309649541
7.43905126171e-06
-0.000450890801667
6.5811509098e-06
-0.000456660158513
5.76935559615e-06
-0.00046165932139
4.99916160417e-06
-0.000465925726587
4.26640388195e-06
-0.000469492963537
3.56723560681e-06
-0.000472391024422
2.89805948838e-06
-0.000474646292041
2.25526618475e-06
-0.000476281182938
1.63488940467e-06
-0.000477314209971
1.03302551127e-06
-0.000477759059611
4.4484806509e-07
-0.000477625594663
-1.33466538927e-07
-0.000476921102359
-7.04493938871e-07
-0.00047565563781
-1.26546619391e-06
-0.000473844190057
-1.81144943923e-06
-0.000471501591477
-2.34260027027e-06
-0.000468641160271
-2.86043293904e-06
-0.000465274230183
-3.36693181853e-06
-0.000461410012626
-3.86421933185e-06
-0.000457055579484
-4.35443491139e-06
-0.000452215902273
-4.83967902465e-06
-0.000446893933816
-5.32197026434e-06
-0.000441090737179
-5.8031984916e-06
-0.000434805671821
-6.28506720552e-06
-0.000428036647156
-6.76902656206e-06
-0.000420780449822
-7.25619922357e-06
-0.000413033145432
-7.74730633387e-06
-0.000404790547102
-8.24260026718e-06
-0.000396048734063
-8.74181503393e-06
-0.000386804592672
-9.24414337784e-06
-0.000377056342181
-9.74825253838e-06
-0.000366803996797
-1.02523474239e-05
-0.000356049707472
-1.07542914275e-05
-0.000344797919314
-1.12517902518e-05
-0.000333055277204
-1.17426442671e-05
-0.000320830209978
-1.22250693741e-05
-0.000308132126017
-1.26980861695e-05
-0.000294970157153
-1.31619710609e-05
-0.000281351398
-1.3618761407e-05
-0.000267278594954
-1.40728052844e-05
-0.000252747251167
-1.4531346078e-05
-0.000237742153445
-1.50050999943e-05
-0.000222233377879
-1.55087778838e-05
-0.00020617189267
-1.60614875188e-05
-0.000189485105939
-1.66867890815e-05
-0.00017207289817
-1.74122101499e-05
-0.000153805135439
-1.82677651749e-05
-0.000134524223947
-1.92809140375e-05
-0.000114062523078
-2.04617035326e-05
-9.22866235897e-05
-2.17759023188e-05
-6.91581297931e-05
-2.31284965495e-05
-4.48114559889e-05
-2.43466768034e-05
-2.01189175997e-05
-2.46925436655e-05
-2.01189203218e-05
1.25449980879e-05
-3.62421003843e-05
1.09423317899e-05
-8.73491785817e-06
-8.8314688196e-06
1.65282369635e-05
-3.80273662606e-05
3.84178866668e-05
-6.6082425554e-05
4.96770251376e-05
-9.29775460187e-05
5.89961824018e-05
-0.000122791291918
6.21394204404e-05
-0.000153742092499
6.2510344452e-05
-0.000184440769968
6.16654070141e-05
-0.000214245273543
5.99159845964e-05
-0.000242774531189
5.74948125652e-05
-0.000269781927145
5.46011808724e-05
-0.000295118106706
5.14055702513e-05
-0.00031870819676
4.80478345212e-05
-0.000340533836065
4.46377716163e-05
-0.000360618092022
4.1257776127e-05
-0.00037901292891
3.79665717676e-05
-0.00039578909453
3.48033285182e-05
-0.000411028234006
3.1791700146e-05
-0.000424816964588
2.89434973136e-05
-0.000437242600739
2.62618484405e-05
-0.000448390214339
2.37437992627e-05
-0.000458340734516
2.13823694714e-05
-0.000467169831362
1.91681232651e-05
-0.000474947369187
1.70903286747e-05
-0.000481737260168
1.51377828549e-05
-0.000487597586227
1.32993761124e-05
-0.000492580891321
1.1564454704e-05
-0.00049673456965
9.92303266174e-06
-0.00050010129876
8.36588934291e-06
-0.000502719485297
6.88458908363e-06
-0.00050462369814
5.47144699258e-06
-0.000505845068415
4.11942833875e-06
-0.000506411518533
2.82171474306e-06
-0.000506347200282
1.57056963057e-06
-0.000505671928255
3.57751826319e-07
-0.00050441094443
-8.16137358467e-07
-0.000502599277046
-1.94513564931e-06
-0.000500272676207
-3.03109643143e-06
-0.000497457035517
-4.08110866669e-06
-0.000494167156568
-5.10133008831e-06
-0.00049041380593
-6.09595274112e-06
-0.000486205451417
-7.06878919515e-06
-0.000481548810627
-8.02357448641e-06
-0.000476448992579
-8.96403916098e-06
-0.000470909522429
-9.8939069815e-06
-0.000464932344879
-1.08168583943e-05
-0.0004585178495
-1.17364676048e-05
-0.00045166493805
-1.26561117997e-05
-0.00044437115242
-1.3578854841e-05
-0.000436632872863
-1.45073080205e-05
-0.00042844559694
-1.54434771987e-05
-0.00041980429842
-1.63886068034e-05
-0.0004107038629
-1.73430378898e-05
-0.000401139582286
-1.83060976507e-05
-0.000391107685308
-1.9276042513e-05
-0.000380605865572
-2.02500743346e-05
-0.000369633763923
-2.12244512868e-05
-0.000358193347869
-2.2194709602e-05
-0.000346289129774
-2.31560106154e-05
-0.00033392815694
-2.410361928e-05
-0.000321119711759
-2.50335168738e-05
-0.000307874658568
-2.59431415897e-05
-0.000294204384226
-2.68322477593e-05
-0.000280119288926
-2.77038589735e-05
-0.000265626800557
-2.85652960302e-05
-0.000250728883038
-2.94292658835e-05
-0.00023541905138
-3.03149340283e-05
-0.000219678994898
-3.12488366562e-05
-0.000203474819914
-3.22656648599e-05
-0.000186753141692
-3.34084695965e-05
-0.000169437548242
-3.47278059387e-05
-0.000151426261912
-3.62790538295e-05
-0.000132592940392
-3.81142379382e-05
-0.000112793289865
-4.02613564777e-05
-9.18803903842e-05
-4.26888042017e-05
-6.97512799427e-05
-4.52576094633e-05
-4.65369602437e-05
-4.75609989869e-05
-2.30285250091e-05
-4.82009815261e-05
-4.31474476314e-05
-9.12977946375e-06
-2.71123157521e-05
-3.11997765716e-05
1.33350793385e-05
-5.66886512408e-05
4.20171114079e-05
-8.07920112604e-05
6.2521246128e-05
-0.000107542339215
7.64273522401e-05
-0.000134070273825
8.55241160136e-05
-0.000161538511008
8.96076565583e-05
-0.000189446703517
9.04185358663e-05
-0.000216915903365
8.9134605743e-05
-0.000243376045263
8.63761253648e-05
-0.000268481618023
8.26003841838e-05
-0.00029203458789
7.81541496002e-05
-0.000313937989632
7.33089708497e-05
-0.000334165593035
6.82754367896e-05
-0.000352740123922
6.32123013649e-05
-0.000369716789159
5.82344402388e-05
-0.00038517075546
5.34205369355e-05
-0.000399187831699
4.88204036353e-05
-0.000411857774012
4.44616413251e-05
-0.000423269688602
4.03554107778e-05
-0.000433509054634
3.65012133265e-05
-0.000442655951331
3.28906948196e-05
-0.000450784146293
2.95105632644e-05
-0.000457960774648
2.63447504525e-05
-0.000464246406189
2.33759590088e-05
-0.000469695353661
2.05867291164e-05
-0.000474356118367
1.79601395585e-05
-0.000478271900722
1.54802357869e-05
-0.000481481129486
1.31322600922e-05
-0.000484017993215
1.0902751722e-05
-0.000485912963375
8.77955782278e-06
-0.000487193253274
6.75173544779e-06
-0.000487883100238
4.80927377725e-06
-0.000488004082582
2.94269553116e-06
-0.000487576399528
1.14288494389e-06
-0.000486621352424
-5.97296917212e-07
-0.000485163519632
-2.27397185145e-06
-0.000483220516147
-3.88814082927e-06
-0.000480801490812
-5.45012352133e-06
-0.000477916716817
-6.96588440491e-06
-0.000474576593697
-8.44145501115e-06
-0.000470790302034
-9.88224619058e-06
-0.000466565617945
-1.12934751308e-05
-0.000461908872359
-1.26803218994e-05
-0.000456824917567
-1.40479958409e-05
-0.000451317086649
-1.54017397666e-05
-0.000445387161635
-1.67467853375e-05
-0.000439035369458
-1.80882616909e-05
-0.000432260425083
-1.94310581485e-05
-0.000425059638959
-2.07796429193e-05
-0.000417429104358
-2.2137844644e-05
-0.000409363975347
-2.3508608217e-05
-0.000400858840863
-2.48937433659e-05
-0.000391908191238
-2.62936895812e-05
-0.000382506964058
-2.77073269719e-05
-0.000372651143974
-2.91318647297e-05
-0.000362338380539
-3.05628399802e-05
-0.000351568576562
-3.19942574674e-05
-0.000340344390107
-3.34188983368e-05
-0.000328671586218
-3.48288167745e-05
-0.000316559172202
-3.62160356373e-05
-0.000304019249842
-3.7573441559e-05
-0.000291066527082
-3.88958667326e-05
-0.000277717432419
-4.01813447808e-05
-0.000263988798369
-4.1432495425e-05
-0.000249896103919
-4.26579928427e-05
-0.000235451257819
-4.38741143734e-05
-0.000220659862176
-4.51063320117e-05
-0.000205518256448
-4.63904447324e-05
-0.000190010113339
-4.77738102653e-05
-0.000174102693794
-4.93158914259e-05
-0.000157743407732
-5.10870942465e-05
-0.000140856767278
-5.31656965104e-05
-0.000123341789729
-5.56292177084e-05
-0.000105070279281
-5.85328691404e-05
-8.58923048252e-05
-6.18667808846e-05
-6.56705845147e-05
-6.54793317701e-05
-4.43624625411e-05
-6.88691228792e-05
-2.22417134049e-05
-7.03217336271e-05
-6.5389162033e-05
-2.78864896414e-05
7.74163134943e-07
-5.5292158476e-05
4.07407467742e-05
-8.08260570452e-05
6.755100956e-05
-0.000106204707111
8.78998956409e-05
-0.00013186036842
0.000102083012842
-0.000157233800621
0.000110897547432
-0.000182467861008
0.000114841716133
-0.000207302032727
0.000115252706748
-0.000231318975673
0.000113151547832
-0.000254202516268
0.000109259665077
-0.000275751546332
0.000104149413343
-0.000295863391673
9.82659940129e-05
-0.00031450808851
9.1953666742e-05
-0.000331705158566
8.54725058789e-05
-0.000347505264572
7.9012406392e-05
-0.000361976566433
7.27057411008e-05
-0.000375195086369
6.66390558647e-05
-0.000387238287337
6.08636035757e-05
-0.000398181091354
5.54044443065e-05
-0.000408093650088
5.02679684537e-05
-0.000417040302031
4.54478642021e-05
-0.000425079283952
4.0929675647e-05
-0.000432262887919
3.66941661252e-05
-0.000438637857101
3.27197184969e-05
-0.000444245889997
2.89839907502e-05
-0.00044912417687
2.5465014793e-05
-0.000453305926363
2.21418878322e-05
-0.000456820859998
1.89951681498e-05
-0.000459695663059
1.60070618502e-05
-0.000461954405459
1.31614927591e-05
-0.000463618957668
1.04441086309e-05
-0.000464709340813
7.84211712206e-06
-0.000465243752335
5.34368378206e-06
-0.000465238599614
2.93754122288e-06
-0.000464711174715
6.15458418952e-07
-0.000463683018829
-1.62545447505e-06
-0.000462170344567
-3.78664779253e-06
-0.000460183651687
-5.87483542975e-06
-0.000457735265834
-7.89851109872e-06
-0.000454836263846
-9.86488816003e-06
-0.00045149684899
-1.17808716363e-05
-0.000447726052717
-1.36530442737e-05
-0.000443531645256
-1.54878844014e-05
-0.000438920061572
-1.72919074358e-05
-0.000433896319615
-1.90717396501e-05
-0.00042846393457
-2.08341267073e-05
-0.000422624843711
-2.25858780927e-05
-0.000416379361244
-2.43337461016e-05
-0.000409726183452
-2.60842378867e-05
-0.000402662465594
-2.7843362775e-05
-0.000395183989892
-2.9616322353e-05
-0.00038728544126
-3.14071589119e-05
-0.000378960800436
-3.32183862661e-05
-0.00037020385564
-3.50506365166e-05
-0.000361008821421
-3.69023633492e-05
-0.000351371040304
-3.87696480721e-05
-0.000341287728865
-4.06461536659e-05
-0.000330758719398
-4.25232692489e-05
-0.000319787133588
-4.43904864773e-05
-0.000308379918717
-4.62360340365e-05
-0.000296548175703
-4.80477810478e-05
-0.000284307202265
-4.98144174386e-05
-0.000271676201363
-5.1526870067e-05
-0.000258677585575
-5.31799630262e-05
-0.000245335850366
-5.47742330649e-05
-0.000231676008645
-5.6317836999e-05
-0.000217721685456
-5.78284399567e-05
-0.000203492414031
-5.93356058148e-05
-0.000189001122357
-6.08817387338e-05
-0.000174251053116
-6.25238818007e-05
-0.000159231892779
-6.43350540056e-05
-0.000143916475544
-6.6402513674e-05
-0.000128257101589
-6.88250726176e-05
-0.000112179978476
-7.17063429329e-05
-9.5577620634e-05
-7.51352290616e-05
-7.83051202415e-05
-7.91392832444e-05
-6.01932425721e-05
-8.35912114332e-05
-4.10269534356e-05
-8.80354140251e-05
-2.07535936352e-05
-9.05950948153e-05
-8.61427570396e-05
-3.63550243261e-05
3.71291956533e-05
-6.53884407755e-05
6.97741641493e-05
-9.27646530432e-05
9.4927221593e-05
-0.000118945542449
0.000114080784493
-0.000144060873895
0.00012719834363
-0.00016811206989
0.000134948742754
-0.000191266200314
0.000137995845883
-0.000213459275881
0.000137445781642
-0.000234549347423
0.000134241618689
-0.000254431252507
0.000129141569456
-0.00027304917446
0.000122767334567
-0.000290394484441
0.000115611303237
-0.000306493675258
0.000108052856774
-0.000321395043027
0.000100373872837
-0.000335157641385
9.27750039103e-05
-0.000347843498676
8.53915975289e-05
-0.000359512859392
7.83084156909e-05
-0.000370221742052
7.15724853243e-05
-0.000380021043213
6.52037445284e-05
-0.000388956540788
5.92034650694e-05
-0.000397069332997
5.35606554232e-05
-0.000404396423014
4.82567646541e-05
-0.000410971293417
4.3269035487e-05
-0.000416824404919
3.85728289327e-05
-0.000421983605844
3.41431905711e-05
-0.000426474462555
2.99558703678e-05
-0.000430320530453
2.59879545469e-05
-0.000433543585389
2.22182218612e-05
-0.000436163834608
1.86273097883e-05
-0.000438200111821
1.5197768644e-05
-0.000439670082645
1.19140780629e-05
-0.000440590480074
8.76251310275e-06
-0.000440977204275
5.73040645478e-06
-0.000440844754582
2.80508994496e-06
-0.000440205785707
-2.35120874903e-08
-0.000439082240974
-2.74900085651e-06
-0.000437493615523
-5.37527492205e-06
-0.000435448483674
-7.9199689696e-06
-0.000432957593413
-1.03894030815e-05
-0.000430031402505
-1.27910808006e-05
-0.000426679810766
-1.51324651394e-05
-0.00042291186557
-1.74209912443e-05
-0.000418735578149
-1.96641736296e-05
-0.000414157768399
-2.18697190033e-05
-0.000409183913859
-2.4045596043e-05
-0.000403818000348
-2.62000420847e-05
-0.000398062385385
-2.83414949601e-05
-0.000391917692711
-3.04784406991e-05
-0.000385382761335
-3.26191712299e-05
-0.000378454674815
-3.47714512889e-05
-0.000371128897008
-3.69421022036e-05
-0.000363399537702
-3.91365202973e-05
-0.00035525976546
-4.13581606465e-05
-0.000346702373897
-4.36080302595e-05
-0.00033772049398
-4.58842455133e-05
-0.000328308427275
-4.81817170682e-05
-0.000318462557609
-5.04920256915e-05
-0.000308182289809
-5.28035394468e-05
-0.00029747094298
-5.51018357605e-05
-0.000286336511284
-5.73704682103e-05
-0.000274792228806
-5.95920660395e-05
-0.00026285681839
-6.17498303691e-05
-0.000250554416026
-6.38292749562e-05
-0.000237914043425
-6.58203381333e-05
-0.000224968665836
-6.77196131459e-05
-0.000211753637182
-6.95328681086e-05
-0.000198305325076
-7.1276754483e-05
-0.0001846578903
-7.2983042967e-05
-0.00017084130541
-7.46983259523e-05
-0.000156878790063
-7.64863994295e-05
-0.000142782189714
-7.84316565766e-05
-0.000128548946353
-8.06357592057e-05
-0.000114158743228
-8.32152778452e-05
-9.95663249058e-05
-8.62987633038e-05
-8.46904796207e-05
-9.0011076343e-05
-6.94003295988e-05
-9.44294352184e-05
-5.35179447889e-05
-9.94735979139e-05
-3.67350564051e-05
-0.00010481830385
-1.8751272724e-05
-0.000108578880696
-0.000104894030338
-3.61273973658e-05
7.32565872399e-05
-6.8040277123e-05
0.00010168704296
-9.68142542256e-05
0.000123701198182
-0.000123293916749
0.000140560446476
-0.000147832672772
0.000151737099099
-0.000170665652679
0.000157781722117
-0.000192056407366
0.000159386600042
-0.000212120121688
0.000157509495441
-0.000230906070292
0.000153027566765
-0.000248459126329
0.000146694624946
-0.000264830999625
0.000139139207291
-0.000280081462261
0.000130861765272
-0.000294273687551
0.000122245081432
-0.000307469103092
0.000113569287712
-0.000319723787454
0.000105029687576
-0.000331086869412
9.67546787577e-05
-0.000341600532216
8.88220777358e-05
-0.000351300957737
8.12729100545e-05
-0.000360219614749
7.41224007192e-05
-0.000368384493988
6.7368343455e-05
-0.000375821093242
6.09972537952e-05
-0.000382553103045
5.49887735407e-05
-0.000388602828108
4.93187596019e-05
-0.000393991414391
4.39614142304e-05
-0.000398738954582
3.88907297391e-05
-0.000402864531364
3.40814460811e-05
-0.000406386240605
2.95096626715e-05
-0.000409321224281
2.51532043657e-05
-0.000411685731917
2.0991816196e-05
-0.000413495208881
1.70072443177e-05
-0.000414764366956
1.31832347818e-05
-0.000415507224473
9.50536918379e-06
-0.000415737425728
5.96060620819e-06
-0.000415469751365
2.53741400857e-06
-0.000414722368092
-7.70896978209e-07
-0.00041350667563
-3.96469495451e-06
-0.000411831797275
-7.05015492738e-06
-0.000409712042003
-1.00397259132e-05
-0.00040715923543
-1.29422113416e-05
-0.000404184323084
-1.57659948583e-05
-0.000400797574336
-1.85192156173e-05
-0.000397008534664
-2.121003267e-05
-0.000392825881796
-2.38468282724e-05
-0.000388257239735
-2.64383628665e-05
-0.000383308969146
-2.89938684572e-05
-0.000377985947005
-3.15230660854e-05
-0.000372291351906
-3.4036091949e-05
-0.000366226477519
-3.65433170165e-05
-0.000359790602688
-3.90550480314e-05
-0.000352980951421
-4.15811045778e-05
-0.000345792777856
-4.41302778425e-05
-0.000338219609981
-4.67096903074e-05
-0.00033025368009
-4.93240927345e-05
-0.000321886555764
-5.19751568545e-05
-0.000313109968241
-5.4660835371e-05
-0.000303916814896
-5.73748728209e-05
-0.000294302279495
-6.01065635559e-05
-0.000284265020481
-6.28408009846e-05
-0.000273808349533
-6.55585092678e-05
-0.000262941253433
-6.82375669013e-05
-0.000251679270603
-7.08540514691e-05
-0.000240044937562
-7.33841660085e-05
-0.000228067987724
-7.58062273758e-05
-0.000215784905086
-7.81034233261e-05
-0.000203238325636
-8.02661951186e-05
-0.000190474916153
-8.22962800692e-05
-0.000177545367612
-8.42063054618e-05
-0.000164499443642
-8.60289693297e-05
-0.000151384506504
-8.78132654299e-05
-0.000138244223875
-8.96266843602e-05
-0.000125112019615
-9.15638630747e-05
-0.000112007586363
-9.37401946482e-05
-9.89352493954e-05
-9.62876169178e-05
-8.58760880553e-05
-9.93579266878e-05
-7.27757523687e-05
-0.000103111413953
-5.95223610615e-05
-0.000107682828302
-4.59447254787e-05
-0.000113051235247
-3.1722818529e-05
-0.00011904021246
-1.63631996011e-05
-0.000123938500517
-0.000121257230673
-3.49267063654e-05
0.000108183300376
-6.71240479473e-05
0.000133884386078
-9.61248295665e-05
0.000152701979982
-0.000122324869857
0.00016676048653
-0.000146098392047
0.000175510620933
-0.000167782608568
0.000179465938262
-0.000187697580754
0.000179301571852
-0.000206071891965
0.000175883806275
-0.000223077269341
0.000170032943755
-0.000238856205125
0.000162473560327
-0.000253529259288
0.000153812261028
-0.00026719784831
0.000144530353839
-0.000279944831492
0.000134992064129
-0.000291835672673
0.000125460128377
-0.000302920718177
0.00011611473253
-0.000313238277847
0.000107072237843
-0.000322817890454
9.84016897239e-05
-0.00033168324138
9.01382603265e-05
-0.000339854437117
8.22935957672e-05
-0.000347349570244
7.48634758584e-05
-0.000354185661161
6.78333439513e-05
-0.00036037913193
6.11822435136e-05
-0.000365945975417
5.4885602252e-05
-0.000370901757001
4.89171949377e-05
-0.000375261548268
4.32505200822e-05
-0.000379039854899
3.78597517386e-05
-0.000382250571094
3.27203778349e-05
-0.000384906978134
2.78096103123e-05
-0.000387021799615
2.31066365147e-05
-0.000388607292207
1.85927356797e-05
-0.00038967528031
1.42512215774e-05
-0.000390237157775
1.00672452596e-05
-0.000390304431361
6.02787829933e-06
-0.000389890060101
2.12304119761e-06
-0.000389007510883
-1.65344777809e-06
-0.000387668414386
-5.30379304909e-06
-0.000385883294098
-8.83527683091e-06
-0.000383663818138
-1.22592035052e-05
-0.000381021272869
-1.55847582617e-05
-0.00037796676041
-1.88205089877e-05
-0.000374511130987
-2.19748467335e-05
-0.000370664830065
-2.50563353069e-05
-0.000366437687133
-2.80739729476e-05
-0.000361838662686
-3.10373890841e-05
-0.000356875562258
-3.39569706899e-05
-0.000351554727938
-3.6843902246e-05
-0.000345880724376
-3.97100973966e-05
-0.000339856045059
-4.25679982679e-05
-0.000333480874069
-4.54302210133e-05
-0.000326752946764
-4.83090339382e-05
-0.000319667556935
-5.12156697986e-05
-0.000312217757932
-5.41594915146e-05
-0.000304394802542
-5.71470504119e-05
-0.000296188846497
-6.01811152666e-05
-0.000287589914152
-6.32597701685e-05
-0.00027858911608
-6.63756734132e-05
-0.00026918002645
-6.95156557736e-05
-0.000259360168056
-7.2660662008e-05
-0.000249132589082
-7.57860909035e-05
-0.000238507131264
-7.88630273889e-05
-0.000227501788502
-8.18593968925e-05
-0.000216143245237
-8.47427119185e-05
-0.000204467574924
-8.74819002973e-05
-0.000192519518708
-9.00514821247e-05
-0.000180353020203
-9.24326961642e-05
-0.0001680269056
-9.46223971757e-05
-0.00015560854815
-9.66246653923e-05
-0.000143165219112
-9.84723007911e-05
-0.000130762460971
-0.000100216025996
-0.000118465817961
-0.000101923329725
-0.000106331957349
-0.000103697726037
-9.44018753368e-05
-0.000105670278901
-8.27022589566e-05
-0.000107987235479
-7.12377558063e-05
-0.000110822431859
-5.99783282439e-05
-0.000114370843432
-4.88351437604e-05
-0.000118826014533
-3.76422525801e-05
-0.000124244127836
-2.61250938482e-05
-0.000130557372287
-1.36576865897e-05
-0.000136405909068
-0.000134914917582
-3.34168660532e-05
0.000141600164427
-6.45691766896e-05
0.000165036696996
-9.27981484326e-05
0.000180930951928
-0.000118172845299
0.000192135183385
-0.000140969371287
0.000198307146797
-0.000161520006356
0.000200016573159
-0.000180157175241
0.000197938740548
-0.000197163029915
0.000192889660744
-0.000212773160516
0.000185643074136
-0.000227182972709
0.000176883372279
-0.00024054969149
0.000167178979544
-0.000252995469702
0.000156976131759
-0.000264611501289
0.000146608095394
-0.000275463449508
0.000136312076241
-0.000285597458987
0.000126248741621
-0.000295045896128
0.000116520674561
-0.000303832169517
0.000107187962652
-0.000311974339399
9.82804297119e-05
-0.00031948753694
8.98067927733e-05
-0.00032638540197
8.17613403147e-05
-0.000332680815144
7.41287565125e-05
-0.0003383861855
6.68876132164e-05
-0.00034351349954
6.00129155945e-05
-0.000348074273771
5.34779684245e-05
-0.00035207949626
4.72557417762e-05
-0.000355539600016
4.13198546397e-05
-0.000358464480581
3.56452574798e-05
-0.000360863557832
3.02086865723e-05
-0.00036274588604
2.49889636552e-05
-0.000364120297045
1.9967145538e-05
-0.000364995470162
1.51263934564e-05
-0.000365379850487
1.04516242355e-05
-0.000365282030167
5.93005655779e-06
-0.000364712389983
1.55339950042e-06
-0.000363682717437
-2.68312186489e-06
-0.000362203936209
-6.78257582526e-06
-0.000360285400395
-1.07538142045e-05
-0.000357937663892
-1.46069415849e-05
-0.000355171892846
-1.83505309032e-05
-0.000351999686008
-2.19927174422e-05
-0.000348432858842
-2.55416755408e-05
-0.000344483203239
-2.90059925772e-05
-0.000340162209661
-3.23949682246e-05
-0.000335480745286
-3.5718855194e-05
-0.000330448685624
-3.89890321277e-05
-0.00032507450461
-4.22180850855e-05
-0.000319364839072
-4.54197648166e-05
-0.000313324056701
-4.8608782586e-05
-0.000306953871201
-5.1800408535e-05
-0.00030025306175
-5.50098454947e-05
-0.000293217362808
-5.82513709357e-05
-0.000285839587984
-6.15372686291e-05
-0.000278110059871
-6.48765809086e-05
-0.000270017394201
-6.82737834141e-05
-0.000261549614095
-7.17275528328e-05
-0.000252695642014
-7.5229648124e-05
-0.000243446999565
-7.87643009025e-05
-0.000233799574388
-8.23080898939e-05
-0.000223755859117
-8.58298088965e-05
-0.000213326242295
-8.92926469167e-05
-0.000202531312026
-9.26543298545e-05
-0.000191402022656
-9.58720039462e-05
-0.00017998164722
-9.89022783637e-05
-0.000168323515545
-0.000101709616415
-0.000156495052789
-0.000104261161502
-0.000144567424423
-0.000106550028142
-0.000132627122283
-0.000108564970098
-0.000120761865256
-0.000110337560403
-0.000109056902176
-0.000111920991616
-9.76005782676e-05
-0.000113379656159
-8.64773561777e-05
-0.00011482095059
-7.57519428531e-05
-0.000116395694624
-6.54727575952e-05
-0.000118266422977
-5.56671468515e-05
-0.000120628044663
-4.63254657361e-05
-0.000123712526316
-3.73864824488e-05
-0.000127764999353
-2.86811493982e-05
-0.000132949462277
-2.00030087281e-05
-0.000139235513982
-1.06626242126e-05
-0.000145746294099
-0.0001455775418
-3.14900822628e-05
0.000173090252934
-6.10907829666e-05
0.000194637399905
-8.8019006933e-05
0.000207859176819
-0.00011221421809
0.000216330394951
-0.000133873237936
0.00021996616683
-0.0001532875468
0.000219430882108
-0.000170773695342
0.000215424889123
-0.000186626575745
0.000208742541145
-0.000201104080246
0.000200120578605
-0.000214421331518
0.000190200623492
-0.000226748733929
0.000179506381869
-0.000238214965844
0.00016844236356
-0.000248913017899
0.000157306147306
-0.00025890783153
0.000146306889697
-0.00026824397013
0.000135584880013
-0.000276952241429
0.000125228945618
-0.000285054759472
0.000115290480415
-0.000292568417657
0.00010579408758
-0.000299507033943
9.67454087024e-05
-0.000305882535775
8.81368417502e-05
-0.000311705536093
7.99517563914e-05
-0.000316985576813
7.21676534552e-05
-0.000321731227897
6.47585661495e-05
-0.000325950153153
5.76968931007e-05
-0.000329649197412
5.09547853959e-05
-0.000332834513648
4.45051701717e-05
-0.000335511725179
3.83224682311e-05
-0.000337686105097
3.23830656297e-05
-0.000339362769218
2.66656268292e-05
-0.000340546890382
2.11512656653e-05
-0.000341243881982
1.5823383912e-05
-0.000341459250791
1.06669917834e-05
-0.000341198203186
5.66900755165e-06
-0.00034046749963
8.22694511125e-07
-0.000339278682917
-3.87194003669e-06
-0.000337642643458
-8.41861675522e-06
-0.000335566693038
-1.2829766108e-05
-0.000333060699322
-1.71129368026e-05
-0.000330135976943
-2.12752548036e-05
-0.000326804886542
-2.53238093902e-05
-0.000323080496329
-2.92660673273e-05
-0.000318976278349
-3.31102121642e-05
-0.000314505785021
-3.68654631987e-05
-0.000309682274941
-4.05423669665e-05
-0.000304518270234
-4.41530385803e-05
-0.000299025041408
-4.77113157226e-05
-0.000293212031877
-5.12327762301e-05
-0.000287086254274
-5.47345621584e-05
-0.000280651711558
-5.82349533132e-05
-0.000273908917583
-6.17526416353e-05
-0.0002668546137
-6.53056770892e-05
-0.000259481760664
-6.89101240394e-05
-0.000251779914263
-7.25784297875e-05
-0.000243736112265
-7.63175879769e-05
-0.000235336121867
-8.012754587e-05
-0.000226566273686
-8.39994989995e-05
-0.000217415642811
-8.79149344995e-05
-0.000207877808528
-9.18459269188e-05
-0.000197954516823
-9.5753103326e-05
-0.000187656113635
-9.95910528249e-05
-0.000177006071948
-0.000103304374244
-0.000166039322226
-0.000106838756349
-0.000154807582575
-0.000110134020726
-0.00014337218092
-0.000113145020771
-0.000131816728245
-0.000115816616962
-0.000120224555831
-0.000118142203351
-0.000108702528509
-0.000120087000259
-9.73620490095e-05
-0.000121678042728
-8.63126650424e-05
-0.000122970378345
-7.56640789273e-05
-0.000124028245017
-6.55343165589e-05
-0.000124950715575
-5.6018584665e-05
-0.000125911428988
-4.71882723482e-05
-0.000127096737488
-3.90958938385e-05
-0.000128720425026
-3.1750918795e-05
-0.000131057502923
-2.51212890165e-05
-0.000134394630333
-1.90367911924e-05
-0.00013903396092
-1.33466111758e-05
-0.000144925694604
-7.36647925962e-06
-0.000151726425973
-0.00015294402115
-2.93087735113e-05
0.000202399025858
-5.71080532298e-05
0.00022243668073
-8.2482751495e-05
0.000233233876036
-0.000105313112014
0.000239160756134
-0.000125743903142
0.000240396958423
-0.000144023989773
0.000237710969085
-0.000160442057482
0.000231842957104
-0.000175282140368
0.000223582624252
-0.000188798883665
0.000213637322083
-0.00020120594171
0.000202607681685
-0.000212672021415
0.000190972461691
-0.00022332379082
0.000179094133052
-0.000233252624265
0.000167234980809
-0.000242522801477
0.000155577066937
-0.0002511792658
0.00014424134433
-0.000259253911906
0.000133303591685
-0.000266770106521
0.000122806674955
-0.000273745624394
0.00011276960534
-0.000280194392903
0.000103194177059
-0.000286127460763
9.40699094189e-05
-0.000291553530847
8.53778262407e-05
-0.000296479292068
7.70934143971e-05
-0.00030090969001
6.91889637625e-05
-0.000304848204263
6.16354069695e-05
-0.00030829715355
5.44037342333e-05
-0.000311258025019
4.74660411183e-05
-0.000313731812955
4.07962555605e-05
-0.000315719349628
3.43706016054e-05
-0.000317221595564
2.81678719722e-05
-0.000318239902487
2.21695716872e-05
-0.000318776308609
1.6359789003e-05
-0.000318833644722
1.07243267272e-05
-0.000318414312337
5.24967390904e-06
-0.000317518066069
-7.35531222655e-08
-0.000316158320158
-5.23168730989e-06
-0.000314348800849
-1.02281374316e-05
-0.00031209335812
-1.50852102193e-05
-0.000309401436221
-1.98048601007e-05
-0.000306284714202
-2.43919782489e-05
-0.000302756409152
-2.88521158929e-05
-0.000298830871845
-3.31916061242e-05
-0.000294523287405
-3.74177981349e-05
-0.000289849362822
-4.15393893642e-05
-0.000284824944702
-4.5566786728e-05
-0.000279465533275
-4.95124517202e-05
-0.000273785676761
-5.33911740307e-05
-0.000267798250503
-5.72202043783e-05
-0.00026151365249
-6.10191621627e-05
-0.000254938980452
-6.48096274567e-05
-0.000248077277215
-6.86143470918e-05
-0.000240926999365
-7.2455957271e-05
-0.000233481802378
-7.63553234657e-05
-0.000225730749738
-8.03294849578e-05
-0.000217659383129
-8.43889571907e-05
-0.000209251035687
-8.85358959769e-05
-0.000200489019834
-9.27615175435e-05
-0.00019135984502
-9.70441120327e-05
-0.000181853780053
-0.000101351994599
-0.000171972075239
-0.000105634810856
-0.000161723972088
-0.00010983915871
-0.000151136597904
-0.000113891751162
-0.000140247820038
-0.000117727537023
-0.000129119700045
-0.000121262143581
-0.000117819966681
-0.00012444475708
-0.000106450341007