/*--------------------------------*- C++ -*----------------------------------*\
| =========                 |                                                 |
| \\      /  F ield         | OpenFOAM: The Open Source CFD Toolbox           |
|  \\    /   O peration     | Version:  v1806                                 |
|   \\  /    A nd           | Web:      www.OpenFOAM.com                      |
|    \\/     M anipulation  |                                                 |
\*---------------------------------------------------------------------------*/
FoamFile
{
    version     2.0;
    format      ascii;
    class       surfaceScalarField;
    location    "500";
    object      phia;
}
// * * * * * * * * * * * * * * * * * * * * * * * * * * * * * * * * * * * * * //

dimensions      [0 3 -1 0 0 0 0];
oriented        oriented;


internalField   nonuniform List<scalar> 
12640
(
-0.00283678156632
0.00283709484516
-0.00614368877166
0.00330734155749
-0.00947465767285
0.00333142289022
-0.0115781933658
0.00210393391691
-0.0125394633747
0.000961781894001
-0.0139012433054
0.0013622746338
-0.0149587309658
0.00105787646343
-0.0158390467851
0.000880649022899
-0.0165737782922
0.000735039126396
-0.0171811743527
0.000607687658362
-0.0176850637317
0.00050416477808
-0.018104984832
0.000420188464387
-0.018455093234
0.000350367177964
-0.0187462982192
0.000291463420448
-0.018987664044
0.000241622937167
-0.0191868550803
0.00019945368293
-0.0193503092908
0.000163720884072
-0.0194833716303
0.000133338473796
-0.0195904648182
0.000107377034401
-0.019675224309
8.50553297826e-05
-0.0197406378836
6.57196444958e-05
-0.0197891469423
4.8828715585e-05
-0.0198227545138
3.39391660976e-05
-0.0198431001356
2.06917420008e-05
-0.0198515403011
8.79933478808e-06
-0.0198492001923
-1.96594564868e-06
-0.0198370313384
-1.17809534792e-05
-0.019815847628
-2.07806507576e-05
-0.0197863667511
-2.90636401187e-05
-0.0197492510972
-3.66833274086e-05
-0.0197051648223
-4.36395079465e-05
-0.019655048229
-4.96549146063e-05
-0.0196004879451
-5.40836628345e-05
-0.0195445591106
-5.54371574024e-05
-0.019484210549
-5.98422662761e-05
-0.0193805334488
-0.000103157931964
-0.0192285727593
-0.000151428709614
-0.0190363832008
-0.000191647310844
-0.01882292404
-0.00021290661523
-0.0185954936506
-0.000226870497923
-0.0183593566296
-0.0002355695241
-0.0181177595346
-0.000241025720454
-0.0178727959535
-0.000244388092493
-0.0176259147239
-0.000246305858123
-0.0173782186286
-0.000247120540055
-0.0171306547236
-0.00024699264957
-0.0168841006633
-0.000245986671651
-0.0166394236953
-0.000244117954571
-0.0163975075454
-0.0002413648885
-0.0161592916185
-0.000237676750554
-0.0159257879896
-0.000232975671101
-0.0156981115666
-0.000227163681009
-0.0154774852834
-0.000220127603775
-0.0152652537514
-0.000211750468126
-0.0150628654866
-0.000201923345634
-0.0148718553054
-0.000190564466642
-0.0146937885191
-0.000177638476324
-0.0145301991369
-0.000163181050014
-0.0143824885315
-0.000147320122714
-0.0142518197025
-0.000130298321423
-0.0141389801677
-0.000112486551096
-0.0140442521055
-9.43943335067e-05
-0.013967267631
-7.66672510891e-05
-0.0139068886341
-6.00796830523e-05
-0.0138610867544
-4.55175443637e-05
-0.0138268599569
-3.3958620836e-05
-0.0138001457263
-2.64593122826e-05
-0.0137757831847
-2.41218966118e-05
-0.0137474059171
-2.81479912049e-05
-0.0137075170876
-3.96710500257e-05
-0.0136471014483
-6.02066471827e-05
-0.0135565960436
-9.0302788084e-05
-0.013423574486
-0.000132825879291
-0.0132410974455
-0.000182279345347
-0.0129863177373
-0.000254594523402
-0.0126772932602
-0.000308830891724
-0.0121455479173
-0.000531564315434
-0.0114393748267
-0.000706016994396
-0.00776693489903
-0.00367197512504
-0.00776677221432
-0.00117608408585
0.00401380210501
-0.00395993014797
0.00609187202771
-0.00589074638052
0.00526282809977
-0.00851522038659
0.00472872436224
-0.0114477019558
0.00389448732588
-0.013434410909
0.00334915026766
-0.0153056279141
0.00292925433685
-0.0170544662766
0.00262963842921
-0.0186983365552
0.00237906513005
-0.020242037537
0.00215153777103
-0.0216798698555
0.00194214620812
-0.0230094179316
0.0017498796076
-0.0242325682427
0.00157365976838
-0.0253537664895
0.00141280147177
-0.0263787902034
0.00126678754774
-0.0273140320957
0.00113483810544
-0.0281660184691
0.00101585312659
-0.028941093954
0.000908564982989
-0.0296452407511
0.000811680122145
-0.030283983435
0.000723962254434
-0.0308623606088
0.000644267848104
-0.0313849189679
0.000571568225251
-0.0318557410375
0.000504950339854
-0.0322784671944
0.000443618784412
-0.0326563398291
0.000386881668587
-0.032992228795
0.000334145752014
-0.0332886774208
0.000284899850144
-0.033547922411
0.000238710506453
-0.0337719451136
0.000195215169758
-0.0339624697507
0.00015411204838
-0.0341210304922
0.000115202198399
-0.0342486596062
7.82702016178e-05
-0.0343461370215
4.37005360565e-05
-0.0344147099285
1.34572465461e-05
-0.0344791376057
4.91694490982e-06
-0.0345962936533
1.43424558048e-05
-0.0347148759305
-3.24948780466e-05
-0.0347934284244
-0.000112733654276
-0.034825962119
-0.00018000642101
-0.0348082388431
-0.000244220395762
-0.0347361924639
-0.000307239265762
-0.0346078684642
-0.000368969427301
-0.0344218058059
-0.000430069729241
-0.0341764480933
-0.000491282402583
-0.0338701066412
-0.000553082788677
-0.0335010112311
-0.000615712183065
-0.0330673520609
-0.000679274563167
-0.0325673188582
-0.000743786381196
-0.0319991434034
-0.000809182555928
-0.0313611593576
-0.000875312178885
-0.0306518704542
-0.000941924951513
-0.029870043859
-0.00100866183726
-0.029014816886
-0.00107503665654
-0.0280858366667
-0.00114042524455
-0.027083416344
-0.00120404973983
-0.0260087223419
-0.00126497760172
-0.0248639686446
-0.0013221232914
-0.0236526216707
-0.00137427215927
-0.0223795833647
-0.00142011452681
-0.0210513441816
-0.00145830605716
-0.0196760703711
-0.00148754039706
-0.0182636130749
-0.00150664313386
-0.0168254128059
-0.00151466959647
-0.0153742968518
-0.00151100786067
-0.0139241666181
-0.0014954693433
-0.0124895938039
-0.0014683616637
-0.0110853472808
-0.00143054413348
-0.00972587983773
-0.00138343478562
-0.00842481784754
-0.00132906210822
-0.00719444707499
-0.00126989905385
-0.00604525002337
-0.00120926481102
-0.00498542838693
-0.00114998821869
-0.0040204131199
-0.00109770402529
-0.00315240383076
-0.00105015519851
-0.00237792036087
-0.00102893780444
-0.00169165244031
-0.000994975861834
-0.00105392694735
-0.00116915631327
-0.000482006502502
-0.00127777193387
0.000491364505422
-0.00464523522496
-0.00727525324542
-0.00520697293711
0.00922104467475
-0.00683330565096
0.00771856681612
-0.00682173253544
0.00525147193014
-0.00703714466533
0.00494429703868
-0.00765775258918
0.00451521877457
-0.00848468546735
0.00417618388637
-0.00951443143853
0.00395908414146
-0.0106191684401
0.00373445357579
-0.0117043791106
0.00346434913503
-0.0127189029805
0.00316613259847
-0.0136392672047
0.00286257668997
-0.014457702581
0.00256837686119
-0.015175459757
0.00229147383869
-0.0157983860337
0.00203578000471
-0.0163342332491
0.00180268333518
-0.0167912452129
0.00159189503612
-0.0171774465332
0.00140209760998
-0.0175002862249
0.0012314456507
-0.0177664720869
0.00107790703983
-0.0179819282931
0.000939458749718
-0.0181518143988
0.000814196020778
-0.0182805839666
0.000700380392077
-0.0183720507541
0.000596462972984
-0.0184294657783
0.000501081324505
-0.0184555858274
0.000413053722058
-0.0184527453673
0.000331359941275
-0.0184229153475
0.000255130016008
-0.0183677635621
0.000183622383417
-0.0182887012643
0.00011622291077
-0.018186930289
5.2415182212e-05
-0.0180635060759
-8.14104581961e-06
-0.0179193828182
-6.57675995518e-05
-0.0177551266944
-0.000120463057611
-0.0175660274715
-0.000175544595176
-0.0173184071812
-0.000242600448077
-0.017032865423
-0.000271094118812
-0.0167698173482
-0.000295434473848
-0.0165412868459
-0.000341154726956
-0.016339636496
-0.000381545525054
-0.0161668594446
-0.000416886114397
-0.0160235414864
-0.000450445674439
-0.0159094601337
-0.000482940145837
-0.0158248031428
-0.000514617504261
-0.0157699926112
-0.000545985536134
-0.0157453118052
-0.000577659052252
-0.0157506803939
-0.00061024154663
-0.0157855220904
-0.000644334779189
-0.0158486512489
-0.00068056202517
-0.0159381684646
-0.000719574805155
-0.0160513547069
-0.000762038400279
-0.0161845784164
-0.000808618660099
-0.0163332037924
-0.00085995674119
-0.0164915194461
-0.000916646168184
-0.0166526785972
-0.000979193808518
-0.016808678274
-0.00104798232018
-0.0169503737218
-0.0011232165548
-0.0170675610043
-0.00120487443775
-0.0171491255417
-0.00129264776144
-0.0171832865753
-0.00138589706017
-0.0171579266914
-0.00148361077801
-0.0170610194208
-0.00158439527035
-0.0168811227631
-0.0016864881534
-0.0166079240936
-0.0017878186163
-0.0162327805064
-0.00188610187396
-0.0157492192305
-0.00197898210641
-0.0151533356015
-0.00206419604319
-0.0144440569007
-0.00213977365222
-0.0136232447796
-0.00220419615328
-0.0126956094053
-0.00225664563605
-0.0116684767375
-0.0022969767736
-0.0105512909403
-0.00232639261154
-0.00935506287762
-0.00234615234396
-0.00809066970482
-0.00236203019016
-0.00676828715339
-0.00237246048746
-0.00539204193633
-0.00240511041664
-0.00397390077623
-0.00241303355864
-0.00251993324232
-0.00262305450427
-0.00119514036332
-0.0026025293745
-1.21395446006e-05
-0.0058280560256
-0.00728740302528
-0.00995927295595
0.019181034956
-0.00679229160073
0.00455183332455
-0.00537467012779
0.00383399178634
-0.00554007476436
0.00510980885616
-0.00651205881523
0.00548728518378
-0.00784114484903
0.00550532896015
-0.00925207145213
0.00537005489229
-0.0106021494299
0.00508456571598
-0.011836733757
0.00469896154021
-0.0129457999055
0.00427522068303
-0.0139363519826
0.00385314416836
-0.0148209607432
0.00345299379119
-0.0156135085683
0.00308402159666
-0.0163271071261
0.00274937064453
-0.0169731342774
0.00244869377322
-0.0175610416867
0.00217977824228
-0.0180985344825
0.00193955772041
-0.0185918408576
0.00172471274334
-0.0190459831879
0.00153200235979
-0.0194650143487
0.00135843740836
-0.0198522269358
0.00120134932138
-0.0202103188093
0.00105840863905
-0.0205415331416
0.000927607892566
-0.0208477618796
0.000807237423924
-0.0211306345056
0.000695848899848
-0.0213915804326
0.000592226227948
-0.0216318829083
0.00049534895352
-0.0218527182318
0.000404372880177
-0.0220551702011
0.000318586909451
-0.022240275327
0.000237431632754
-0.0224088507555
0.000160342981062
-0.0225617326578
8.70225666471e-05
-0.022698832398
1.6542861195e-05
-0.0228254707328
-4.90014337142e-05
-0.0229596730829
-0.000108496495921
-0.0230327677338
-0.00019810011239
-0.0230479384482
-0.000280368107517
-0.023018964127
-0.000370236123482
-0.0229389706999
-0.000461649508735
-0.0228065295506
-0.000549440828347
-0.0226230939876
-0.000633997858783
-0.0223900102494
-0.00071614356645
-0.022108707074
-0.000796042678355
-0.0217810785316
-0.000873738809046
-0.0214095165433
-0.000949346989744
-0.020996892485
-0.00102299354947
-0.0205465808416
-0.00109477418936
-0.0200625028909
-0.00116476865106
-0.019549145049
-0.00123305956426
-0.0190115581256
-0.00129975182916
-0.0184553175714
-0.00136498235138
-0.0178864573548
-0.0014289382876
-0.0173113506235
-0.00149186938705
-0.0167365487722
-0.00155410903716
-0.0161685520982
-0.00161608633845
-0.0156135294235
-0.00167834239392
-0.0150769696208
-0.00174153055822
-0.01456329749
-0.00180641127501
-0.0140754575652
-0.00187382109618
-0.0136145196237
-0.00194462744501
-0.0131793313727
-0.00201965483001
-0.0127662843326
-0.00209960082372
-0.0123692219636
-0.00218493910569
-0.0119795409984
-0.00227583492972
-0.0115864871566
-0.00237208029137
-0.0111776555087
-0.00247306551316
-0.0107396528778
-0.00257780600929
-0.0102589003411
-0.0026849713187
-0.00972250820828
-0.00279305173708
-0.00911923049194
-0.00290026032167
-0.00844033574442
-0.00300528299896
-0.00768066263561
-0.00310581234389
-0.00683868362521
-0.00320398416823
-0.00591799643636
-0.00329311892203
-0.00492241800477
-0.00340064695617
-0.00386868544383
-0.0034667332711
-0.00275613022647
-0.00373557168542
-0.00169787220407
-0.00366071199366
-0.000504387664707
-0.00702158228872
-0.00779175287485
-0.00233345298093
0.0215145436303
-0.00122268691367
0.00344116382575
-0.00274118457648
0.00535258166094
-0.0046490438438
0.00701774489823
-0.0064476025941
0.0072859034576
-0.0080833170393
0.00714108754065
-0.0094920965943
0.00677886563536
-0.0106713474113
0.00626383876388
-0.0116600226894
0.00568765178795
-0.0125000680775
0.00511527484899
-0.0132244268533
0.0045775051983
-0.0138576357971
0.00408619777436
-0.0144177514055
0.00364412460447
-0.014917747674
0.0032493456532
-0.0153667210208
0.00289763738229
-0.0157709783187
0.00258399632266
-0.0161349088296
0.00230344030827
-0.0164616176023
0.00205136390568
-0.0167533561577
0.0018236748289
-0.0170118147404
0.00161682042138
-0.0172383119375
0.00142776297107
-0.0174339212831
0.00125392539633
-0.0175995468099
0.00109313348627
-0.0177359734445
0.000943555646342
-0.0178438927477
0.000803653125854
-0.0179239215252
0.000672132050346
-0.0179766086374
0.000547907090986
-0.0180024368743
0.000430064805647
-0.0180018294871
0.000317837637146
-0.0179751175979
0.000210570819042
-0.017922628705
0.000107699793358
-0.0178444401974
8.6730465311e-06
-0.0177408560327
-8.72077703009e-05
-0.0176085855957
-0.00018144505055
-0.0174498691588
-0.000267392815714
-0.0173071928594
-0.000340962518891
-0.0171730956627
-0.000414656734388
-0.0170557080083
-0.000487820704135
-0.0169555366828
-0.000562022552173
-0.01686952797
-0.000635655578909
-0.0167953508915
-0.000708384859712
-0.0167307705093
-0.000780936651788
-0.0166730754076
-0.000853953048554
-0.0166191356538
-0.000927894716775
-0.0165654888419
-0.00100321082655
-0.0165083466749
-0.00108035148392
-0.0164436184366
-0.00115971711714
-0.0163669741468
-0.00124162413461
-0.0162739489617
-0.00132629281938
-0.016160071653
-0.00141383154815
-0.0160210271801
-0.0015042241426
-0.0158528397825
-0.00159731542423
-0.0156520824161
-0.00169280968009
-0.0154160895763
-0.00179027569823
-0.0151431693533
-0.00188917223628
-0.0148327804058
-0.00198888688175
-0.0144856580176
-0.00208879947812
-0.0141038467673
-0.00218835843429
-0.0136906211679
-0.00228717322288
-0.0132502612717
-0.00238510324335
-0.012787684729
-0.00248233790122
-0.012307938157
-0.00257944358977
-0.0118155914709
-0.00267737276439
-0.0113140856898
-0.00277741765147
-0.0108051146675
-0.00288111912171
-0.0102881196215
-0.00299011856889
-0.00975996946685
-0.00310600512908
-0.00921490503243
-0.00323007516688
-0.00864479029022
-0.00336319689151
-0.00803975945148
-0.0035053117191
-0.00738923603654
-0.00365581761281
-0.00668376908101
-0.00381127987456
-0.0059168383171
-0.003970908796
-0.00508912390169
-0.00412081634918
-0.00420673813708
-0.00428301801012
-0.00329439508174
-0.00437905069381
-0.0023529946262
-0.00467695492491
-0.001480382122
-0.00453335295035
-0.000385233682556
-0.00811667063255
-0.00817702406135
-0.000148573394471
0.0216633914213
-0.000474879926541
0.00376757485906
-0.0032490871375
0.00812685585488
-0.00556540192323
0.00933411427455
-0.00735082987883
0.00907137566473
-0.00876354392311
0.00855383560385
-0.00986368044206
0.0078790277815
-0.0107288598896
0.00712903680764
-0.0114372392751
0.00639604438148
-0.0120439379555
0.00572198157968
-0.0125832060074
0.00511677611697
-0.0130759842528
0.00457897314408
-0.0135348211633
0.00410295207097
-0.0139668309099
0.00368133890753
-0.0143757207534
0.00330650269159
-0.0147631854303
0.00297142835514
-0.0151298108655
0.00267002403529
-0.0154756273309
0.0023971299552
-0.0158004373918
0.00214842487015
-0.0161039983156
0.00192031240987
-0.0163861203282
0.00170980626201
-0.0166467102524
0.00151442773535
-0.0168857898066
0.00133211571703
-0.0171034954726
0.00116115533079
-0.0173000757913
0.00100011790638
-0.0174758829727
0.00084781530187
-0.0176313690898
0.000703259938865
-0.0177670792461
0.000565633492833
-0.0178836511386
0.000434258830213
-0.0179818093219
0.000308570113936
-0.0180623888527
0.000188111251746
-0.0181263796983
7.24878680741e-05
-0.018175452997
-3.83193655338e-05
-0.0182127544198
-0.000144337466928
-0.0182230079548
-0.000257341668027
-0.0181956681741
-0.000368511179076
-0.0181324552833
-0.000478084813037
-0.0180334936288
-0.000587003072399
-0.0179010846321
-0.000694657005218
-0.0177370684536
-0.000799901289467
-0.0175436972346
-0.000901988423887
-0.0173239272248
-0.00100094126015
-0.017081055473
-0.00109705998734
-0.0168185178726
-0.0011906676419
-0.0165398081073
-0.00128215411685
-0.0162483680477
-0.00137202294611
-0.0159474408195
-0.00146087155801
-0.0156399274844
-0.00154936031773
-0.015328251894
-0.00163818482817
-0.0150142443364
-0.00172804908657
-0.0146990428708
-0.00181962720603
-0.0143830308373
-0.00191352084989
-0.0140658135485
-0.00201021042924
-0.0137462525112
-0.00211001063679
-0.0134225573548
-0.00221303030612
-0.0130924471571
-0.00231914957269
-0.0127533701832
-0.00242801745112
-0.0124027755819
-0.00253908329031
-0.0120384032434
-0.0026516643744
-0.011658559312
-0.00276505541571
-0.0112623217925
-0.00287867270466
-0.0108496314233
-0.00299222115728
-0.0104212183427
-0.00310586274716
-0.00997834701081
-0.00322035634978
-0.00952237611526
-0.00333714772663
-0.00905418882514
-0.00345835456851
-0.00857353080617
-0.0035867030145
-0.00807840684919
-0.00372523054632
-0.00756460796926
-0.00387701934443
-0.0070255465532
-0.00404438861669
-0.00645248201283
-0.00422889001758
-0.00583570310581
-0.00442805959344
-0.00516601794457
-0.0046405879112
-0.00443938496145
-0.00484744274001
-0.00365644701779
-0.00506594310666
-0.00283931041278
-0.00519618178437
-0.00198988608848
-0.00552637212955
-0.00123287028363
-0.0052903385281
-0.000243005129181
-0.00910660499632
-0.0084200325152
0.000430478878971
0.0212328097096
-0.00120382917663
0.00540188101313
-0.00443443478513
0.0113574886797
-0.00650252813665
0.0114022397287
-0.00790740496739
0.0104762836085
-0.00892286695038
0.00956932546187
-0.00966501187647
0.00862119608996
-0.0102414273207
0.00770547170445
-0.0107298155007
0.00688444803225
-0.0111737128861
0.00616589100703
-0.0115953706843
0.00553844216555
-0.0120053907072
0.00498899740715
-0.0124077282279
0.00450528914948
-0.0128025846941
0.0040761895746
-0.0131882383074
0.00369214456414
-0.0135621479147
0.00334531951256
-0.0139215743862
0.00302942506318
-0.0142639122044
0.00273943462278
-0.0145868491077
0.0024713209435
-0.0148884264162
0.002221840561
-0.0151670414474
0.00198836408239
-0.0154214228362
0.00176874325233
-0.0156505920276
0.00156121082617
-0.0158538239411
0.00136430436323
-0.0160306076836
0.00117681053355
-0.0161806136984
0.000997721374315
-0.0163036632582
0.000826201318122
-0.0163997059398
0.000661559117642
-0.0164687955465
0.000503223025056
-0.0165110841581
0.00035072432152
-0.0165267703774
0.000203654738349
-0.0165161187378
6.16846681944e-05
-0.0164789040682
-7.56939716055e-05
-0.0164147872568
-0.000208622892137
-0.0163383965308
-0.00033390846445
-0.0162529636706
-0.000454125878264
-0.0161599620282
-0.000571273387983
-0.0160609885088
-0.000686167805006
-0.0159563170365
-0.000799523269775
-0.015845037048
-0.000911378508233
-0.0157255723914
-0.0010216520731
-0.0155961812156
-0.00113053180732
-0.0154550771878
-0.00123836312674
-0.0153004740123
-0.00134546815426
-0.0151306977005
-0.00145212541783
-0.0149443038008
-0.00155860795499
-0.0147401636418
-0.00166519846418
-0.0145175196777
-0.00177218521054
-0.0142760183561
-0.00187986088795
-0.0140157126617
-0.00198852202192
-0.0137370340206
-0.00209846534831
-0.0134407298668
-0.00220997567207
-0.0131277743463
-0.00232330769202
-0.0127992563423
-0.00243866062931
-0.0124562596706
-0.00255614928739
-0.0120997483973
-0.0026757729524
-0.0117304791307
-0.00279738888589
-0.0113489581298
-0.00292069632695
-0.0109554597761
-0.00304524507279
-0.01055011166
-0.00317047625815
-0.0101330347816
-0.0032958132449
-0.00970451070171
-0.00342080004331
-0.00926512471128
-0.00354529521231
-0.00881583179326
-0.00366968764194
-0.00835787577001
-0.00379513438182
-0.00789256094781
-0.00392369289479
-0.00742079761703
-0.0040584826679
-0.00694257217376
-0.00420346681786
-0.00645634463877
-0.00436325132521
-0.00595858111493
-0.00454215232614
-0.00544346427015
-0.00474400144696
-0.0049034006909
-0.00496811469584
-0.00432972883374
-0.00521424932025
-0.00371647557279
-0.00546068489535
-0.00305952578924
-0.00572288747896
-0.00237525255799
-0.00588044702869
-0.0016598791811
-0.0062417412559
-0.00105605443394
-0.00589420153076
-0.000183370582214
-0.0099792854763
-0.00860343521066
0.000473625625419
0.0207592407057
-0.00204451883779
0.00792003739739
-0.00523277422836
0.0145457527878
-0.00683939738313
0.0130088789936
-0.00785302598721
0.0114899326137
-0.00854883460897
0.0102651558343
-0.00905299389078
0.0091253770067
-0.00946994160802
0.00812243938721
-0.0098580078455
0.00727253256555
-0.0102428294714
0.00655072867752
-0.0106343458617
0.00592997249667
-0.0110346973382
0.00538936012286
-0.0114418241645
0.00491242424261
-0.0118516412731
0.00448601124575
-0.0122593701401
0.00409987375689
-0.0126602656983
0.00374621053005
-0.0130499782385
0.00341912763957
-0.0134247146745
0.00311415527676
-0.0137812864037
0.00282787058057
-0.0141170922047
0.0025576177936
-0.0144300682925
0.00230130469889
-0.0147186248784
0.00205725747534
-0.0149815824111
0.00182411872694
-0.0152181122294
0.0016007774175
-0.0154276861808
0.00138632024696
-0.0156100338473
0.00117999752665
-0.0157651100389
0.000981198381157
-0.0158930670369
0.000789429543865
-0.0159942399317
0.000604301571414
-0.0160691224389
0.000425504907871
-0.0161183872961
0.000252809931288
-0.0161428259681
8.60064361851e-05
-0.0161435780516
-7.50663061059e-05
-0.0161213895516
-0.000230943166137
-0.0160717017667
-0.000383733471148
-0.015994065672
-0.000531903354774
-0.0158895723874
-0.000675911437413
-0.0157598408986
-0.000816046828404
-0.0156071065439
-0.000952406935767
-0.0154336545402
-0.00108498096748
-0.0152417013498
-0.00121375574919
-0.0150334614951
-0.00133892154512
-0.0148110819637
-0.00146089079161
-0.0145764936562
-0.00158020224042
-0.0143312974463
-0.00169746395786
-0.0140767017322
-0.0018133419963
-0.0138134897014
-0.00192854384001
-0.0135420162841
-0.00204378649899
-0.013262238786
-0.00215975995832
-0.0129737815397
-0.00227709412549
-0.0126760258269
-0.00239632856896
-0.0123682155716
-0.00251788576905
-0.012049565854
-0.00264204917319
-0.0117193613956
-0.00276894858655
-0.0113770321412
-0.00289855361075
-0.0110221964841
-0.00303067523616
-0.0106546687831
-0.00316497487072
-0.0102744386599
-0.00330097658733
-0.00988163297059
-0.00343809306486
-0.0094764879385
-0.00357565612444
-0.0090593447283
-0.00371298422547
-0.00863069295755
-0.00384947283233
-0.00819124377893
-0.00398475923792
-0.00774202702425
-0.00411891287622
-0.00728441096646
-0.00425275374578
-0.00682010196532
-0.00438799918382
-0.00635085802995
-0.00452771983079
-0.00587820032122
-0.00467611308091
-0.00540287920911
-0.004838558495
-0.00492445221597
-0.00502056250978
-0.00444086231704
-0.00522757313146
-0.00394865728101
-0.00546030020514
-0.00344340760723
-0.00571948135793
-0.00292247520261
-0.00598160462652
-0.00238322684577
-0.00626212880273
-0.0018410583393
-0.00642261430797
-0.00128591052554
-0.00679689397642
-0.000866283315619
-0.0063138220978
-0.000130387150981
-0.0107152387338
-0.00873384879384
0.00035450463215
0.0204046061416
-0.00282158401579
0.0110960725234
-0.00564077359921
0.0173649262079
-0.00672431083508
0.0140924162749
-0.00742011291174
0.0121857452878
-0.00790164297554
0.0107467025315
-0.00827697833003
0.00950073125828
-0.0086276634703
0.00847314398436
-0.00898745264263
0.00763234017856
-0.00936671834355
0.00693001170761
-0.00976682481842
0.00633009461275
-0.0101846296781
0.00580717899876
-0.0106146100156
0.0053424163706
-0.0110503578692
0.00492176840552
-0.0114854905447
0.00453501256706
-0.0119141134229
0.00417483596303
-0.0123310270794
0.0038360396947
-0.0127317944426
0.00351491649922
-0.0131127278559
0.00320879292506
-0.0134708309947
0.00291570462316
-0.0138037201882
0.0026341721203
-0.0141095411332
0.00236305093961
-0.0143868899787
0.00210143428565
-0.0146347435174
0.00184859167879
-0.0148523996757
0.0016039311213
-0.015039428513
0.00136697493356
-0.0151956329115
0.00113734519659
-0.0153210167819
0.000914749556907
-0.0154157631077
0.000698977754521
-0.0154802117529
0.000489877128215
-0.0155148590741
0.000287374753615
-0.0155203278168
9.13867132889e-05
-0.0154975053488
-9.79831113898e-05
-0.0154479621259
-0.000280585938388
-0.0153755047695
-0.000456293827059
-0.0152811900684
-0.00062632338106
-0.0151662084411
-0.000791000234181
-0.0150315565672
-0.00095080687237
-0.014877975173
-0.00110609699218
-0.0147060220445
-0.00125704236262
-0.0145161450473
-0.0014037400967
-0.0143088261291
-0.00154634602219
-0.0140846841719
-0.00168513600222
-0.0138444953297
-0.00182049122706
-0.0135891755072
-0.00195288032672
-0.0133197467053
-0.00208286305636
-0.0130372839366
-0.00221109412054
-0.0127428427696
-0.00233830987912
-0.0124373801482
-0.00246529907274
-0.0121216824891
-0.00259286216736
-0.0117963133042
-0.00272176166656
-0.0114615895567
-0.00285266675653
-0.0111175919193
-0.00298609711619
-0.0107642083719
-0.00312237550632
-0.0104012039912
-0.0032615943224
-0.0100283042885
-0.00340360443196
-0.00964527322597
-0.00354802870263
-0.00925197941615
-0.00369428681485
-0.00884842542103
-0.0038416574072
-0.00843476330223
-0.00398932297102
-0.00801128001248
-0.00413646673581
-0.00757840958482
-0.00428233780883
-0.0071367414377
-0.00442641656688
-0.00668712351212
-0.00456851608786
-0.00623065405909
-0.00470920308249
-0.00576888277863
-0.00484974680915
-0.00530353008612
-0.00499304503994
-0.00483659005228
-0.00514302346845
-0.00436988797805
-0.00530523027164
-0.00390502332985
-0.00548539569614
-0.00344290579484
-0.00568966026104
-0.00298410161748
-0.00591907614135
-0.00252971999812
-0.00617383980568
-0.00208355273073
-0.00642775874735
-0.00164829501795
-0.00669738173419
-0.00124155936018
-0.00682935553331
-0.000855034133425
-0.00718342047302
-0.00062259200915
-0.00654630056596
-3.63841152957e-05
-0.0113014869029
-0.0087702569178
0.000173193990514
0.0202313902425
-0.00341499487125
0.0146842285374
-0.00565836449916
0.0196082693216
-0.00628660336636
0.0147206454965
-0.00678777117782
0.0126869158577
-0.00715967688795
0.0111186193435
-0.00748979529303
0.00983086559403
-0.00783276981207
0.00881613590039
-0.00820317721187
0.00800276517528
-0.0086027042035
0.00732955527889
-0.00902839797793
0.00675580399807
-0.00947448621127
0.00625328135525
-0.00993376911001
0.00580171196425
-0.0103987585788
0.00538676853735
-0.0108623557703
0.00499861820635
-0.0113181854978
0.00463067128126
-0.0117607302357
0.00427858691788
-0.0121853502673
0.00393953538213
-0.0125882363597
0.003611674034
-0.0129663280518
0.00329378711458
-0.013317218419
0.00298504893728
-0.013639060104
0.0026848744639
-0.0139304792457
0.00239283059354
-0.01419050136
0.00210858611813
-0.0144184891512
0.00183188640377
-0.0146140921384
0.00156254045846
-0.0147772068641
0.00130041756064
-0.0149079444682
0.00104543978039
-0.0150066123591
0.000797593380385
-0.0150736855594
0.000556893149735
-0.0151098451018
0.000323472531538
-0.0151158800979
9.73555608804e-05
-0.0150930225707
-0.000120910901554
-0.0150413353558
-0.000332347047361
-0.0149606167584
-0.000537087671884
-0.0148521221732
-0.000734894165324
-0.0147171849948
-0.000926013862014
-0.014557455053
-0.00111061313181
-0.0143747571035
-0.00128887043104
-0.0141709249302
-0.00146094879518
-0.0139477070462
-0.00162703035786
-0.013706740258
-0.00178738289307
-0.0134495455412
-0.00194239793234
-0.0131775150127
-0.00209258568761
-0.0128918990941
-0.0022385564253
-0.0125938066668
-0.00238101150391
-0.0122842133224
-0.00252073897365
-0.01196396792
-0.00265860187854
-0.0116337931368
-0.00279551532596
-0.0112942794377
-0.00293241184441
-0.0109458756799
-0.00307019585483
-0.010588879968
-0.00320968706357
-0.0102234398856
-0.00335155606964
-0.0098495651248
-0.0034962632625
-0.00946716050856
-0.00364400631363
-0.00907607681594
-0.00379468994291
-0.00867616696006
-0.00394793519775
-0.00826736322878
-0.0041030821611
-0.00784971563094
-0.0042592922038
-0.00742344612535
-0.0044155749657
-0.0069889290502
-0.00457096263282
-0.00654672164769
-0.00472451949024
-0.00609750354423
-0.00487560513934
-0.00564220647377
-0.00502377959355
-0.00518184214134
-0.00516952984527
-0.00471798999929
-0.0053135575947
-0.0042522350486
-0.00545875566273
-0.00378678273109
-0.00560843206016
-0.00332384502793
-0.00576812512174
-0.00286666319913
-0.0059425384045
-0.0024184946031
-0.00613779291685
-0.00198381234941
-0.00635372747073
-0.0015705606926
-0.0065870703797
-0.0011898684876
-0.00680843751067
-0.00085387647226
-0.00703337889959
-0.000571465469917
-0.00711176942869
-0.000389311892759
-0.0073655930526
-0.000312982651825
-0.00662264817107
0.000181569411768
-0.0117960795059
-0.00858873357896
-1.41929821772e-05
0.0202454656592
-0.00380053020657
0.0184704944353
-0.00538817335356
0.0211958748038
-0.00569969439758
0.0150321471143
-0.00611578366583
0.013103001348
-0.0064438991908
0.0114467415377
-0.00677091399065
0.0101578926063
-0.00712872891651
0.00917396549569
-0.00752107532919
0.00839512617785
-0.00794610356369
0.0077545974735
-0.00839879233654
0.00720850541127
-0.00887187098768
0.00672637158808
-0.00935714556266
0.00628699662679
-0.00984649613596
0.00587612777012
-0.0103324379348
0.00548456665028
-0.0108083833048
0.00510662115981
-0.0112687257246
0.00473893112969
-0.0117088180782
0.00437962668132
-0.0121248942331
0.00402774582241
-0.0125139641519
0.00368284928265
-0.0128737044196
0.00334477772249
-0.0132023545145
0.00301350933839
-0.0134986256326
0.00268908250338
-0.0137616228834
0.0023715602402
-0.0139907813808
0.00206101767639
-0.0141858143878
0.00175754228136
-0.0143466718037
0.00146123968651
-0.0144735083231
0.00117223709798
-0.0145666573224
0.000890699170559
-0.0146266134499
0.000616802425839
-0.0146540107093
0.000350819358888
-0.014649600467
9.28917496069e-05
-0.0146142230726
-0.00015634487985
-0.0145491758629
-0.000397452524403
-0.0144556838708
-0.000630638167807
-0.0143346248495
-0.000856011312572
-0.0141871156521
-0.00107358051692
-0.0140143509683
-0.00128343402174