/*--------------------------------*- C++ -*----------------------------------*\
| =========                 |                                                 |
| \\      /  F ield         | OpenFOAM: The Open Source CFD Toolbox           |
|  \\    /   O peration     | Version:  v1806                                 |
|   \\  /    A nd           | Web:      www.OpenFOAM.com                      |
|    \\/     M anipulation  |                                                 |
\*---------------------------------------------------------------------------*/
FoamFile
{
    version     2.0;
    format      ascii;
    class       surfaceScalarField;
    location    "500";
    object      phia;
}
// * * * * * * * * * * * * * * * * * * * * * * * * * * * * * * * * * * * * * //

dimensions      [0 3 -1 0 0 0 0];
oriented        oriented;


internalField   nonuniform List<scalar> 
12640
(
-0.00124524091688
0.00124544959896
-0.00238150346792
0.00113649965822
-0.00344136150856
0.00106013186278
-0.00495140398638
0.00151031631459
-0.00602628940566
0.00107522477091
-0.00729811510407
0.00127219808998
-0.00820750755475
0.000909659035614
-0.00889524950996
0.000687975192256
-0.00944008186754
0.00054504957573
-0.00988125718907
0.000441383883683
-0.0102419933192
0.000360935328893
-0.010538104653
0.000296307902925
-0.0107814694803
0.000243558182578
-0.0109814272446
0.000200154533526
-0.0111454550382
0.000164227182424
-0.0112795807425
0.000134333222381
-0.0113887094257
0.000109343182469
-0.0114768423028
8.83587540561e-05
-0.011547255629
7.06492548736e-05
-0.0116026203693
5.56142139708e-05
-0.0116451191252
4.27604296505e-05
-0.0116765271115
3.16846170761e-05
-0.0116982968732
2.20600716184e-05
-0.0117116127817
1.36220211124e-05
-0.0117174506945
6.15865941617e-06
-0.0117166129132
-5.00815701949e-07
-0.0117097700363
-6.49069307298e-06
-0.0116974830431
-1.19184204277e-05
-0.0116802338856
-1.68649879484e-05
-0.011658440164
-2.13931919389e-05
-0.01163248946
-2.55343252226e-05
-0.0116027957106
-2.92612774243e-05
-0.0115700347748
-3.231218352e-05
-0.0115354841758
-3.40859359217e-05
-0.0115002113717
-3.47920084805e-05
-0.0114543509811
-4.53658528003e-05
-0.011375243987
-7.85988432873e-05
-0.0112715370311
-0.000103188392044
-0.0111508915264
-0.000120117024102
-0.0110200019236
-0.000130354945478
-0.0108824503452
-0.000137011083283
-0.0107404930133
-0.000141415232655
-0.0105955180907
-0.000144431646707
-0.0104484571205
-0.000146520954337
-0.010299996524
-0.000147924206859
-0.0101507178952
-0.000148750184603
-0.0100011672011
-0.000149030396615
-0.00985190198911
-0.00014875700927
-0.00970350819332
-0.000147897642021
-0.00955662636922
-0.000146401113036
-0.00941196104719
-0.000144199694865
-0.00927030036622
-0.000141212876898
-0.00913251760933
-0.00013735206099
-0.00899957865405
-0.0001325274412
-0.00887252809602
-0.000126657140281
-0.00875247495998
-0.000119679293781
-0.00864055327321
-0.000111565982071
-0.00853787757481
-0.00010233914599
-0.00844547304928
-9.20853765362e-05
-0.00836420190431
-8.09701003505e-05
-0.00829467069253
-6.92462643729e-05
-0.00823714271631
-5.72596500884e-05
-0.00819144328769
-4.54455263443e-05
-0.00815688283222
-3.43214360401e-05
-0.00813218353556
-2.44729078187e-05
-0.00811543285933
-1.65374130918e-05
-0.00810403865578
-1.11919694489e-05
-0.00809471752368
-9.13048876226e-06
-0.00808344853002
-1.10880021149e-05
-0.00806554299423
-1.77341780863e-05
-0.0080354610632
-2.99184629674e-05
-0.00798745337278
-4.78499705439e-05
-0.00791437732258
-7.29246211299e-05
-0.00781278188266
-0.00010144279477
-0.00767083699997
-0.000141802082238
-0.00750194579216
-0.000168742030263
-0.00721491386619
-0.000286891530263
-0.00685461384601
-0.000360179952277
-0.00478705096055
-0.00206719493163
-0.00478691895196
-0.00106897245863
0.002314773929
-0.00275571342335
0.00282361208256
-0.00425390680234
0.00255863016855
-0.00571719408762
0.00297383357169
-0.00730323395041
0.00266142679716
-0.00832092404314
0.00229000353002
-0.00939124863174
0.00198009223325
-0.0104374089612
0.00173423692027
-0.0114313593189
0.00153910379724
-0.0123643755023
0.00137450033878
-0.0132320557833
0.00122871590031
-0.0140328462219
0.00109719625772
-0.0147676168497
0.000978426968632
-0.0154389818605
0.000871618542819
-0.0160505758716
0.000775922383898
-0.0166064898637
0.000690352707353
-0.0171109125709
0.000613875656157
-0.0175679157383
0.000545478933404
-0.0179813435535
0.000484200110233
-0.0183547468085
0.000429150104249
-0.0186913682896
0.000379521968199
-0.0189941343789
0.000334602202238
-0.0192656776943
0.000293763382478
-0.0195083465334
0.000256463707546
-0.0197242373832
0.000222231653731
-0.0199152056574
0.00019066351377
-0.0200828983481
0.000161407960914
-0.0202287611575
0.000134165092683
-0.0203540709343
0.000108675923563
-0.0204599364631
8.47187441615e-05
-0.020547335034
6.21213808596e-05
-0.020617012628
4.06888197063e-05
-0.020669442307
2.04010226198e-05
-0.0207045146176
1.28479061553e-06
-0.0207273886493
-1.16094044412e-05
-0.0207720216855
-4.11643171066e-07
-0.0208367252055
-1.35666034485e-05
-0.0208835034375
-5.60731251849e-05
-0.0209055037284
-9.77749183116e-05
-0.0208994542748
-0.000136057992014
-0.0208626683869
-0.000173448570437
-0.0207935402461
-0.000210194411929
-0.0206910874582
-0.000246536549577
-0.0205543290486
-0.000282934961039
-0.0203821476426
-0.00031976528347
-0.0201733147158
-0.000357249900808
-0.019926519915
-0.000395498703557
-0.0196404050446
-0.000434555448426
-0.0193135889998
-0.000474406078225
-0.0189447140327
-0.00051498061187
-0.0185324896802
-0.000556138868024
-0.0180757640358
-0.000597666635169
-0.0175735962853
-0.000639259018564
-0.0170253606539
-0.000680515855798
-0.0164308546715
-0.00072092718942
-0.0157904362169
-0.000759874954702
-0.0151051593496
-0.000796631021101
-0.0143769229072
-0.000830375955174
-0.0136085985102
-0.00086022040852
-0.0128041410079
-0.000885249195215
-0.0119686480458
-0.000904570128737
-0.0111083671585
-0.000917381034642
-0.0102306256318
-0.000923035730493
-0.00934368827584
-0.000921115689753
-0.00845653622249
-0.000911488872133
-0.00757858663577
-0.000894357883988
-0.00671936505456
-0.000870290490174
-0.00588816040557
-0.000840218005081
-0.00509368453726
-0.000805451995857
-0.00434374068715
-0.000767570741822
-0.00364494490031
-0.00072861039072
-0.00300245922829
-0.000690234514954
-0.00241976563716
-0.000655516730049
-0.00189849496325
-0.000622614958763
-0.00143734114859
-0.000602852124297
-0.00103445467241
-0.000571537615217
-0.000668013342274
-0.000653234262092
-0.000341821863355
-0.000686248338261
0.000249060191539
-0.00265799307053
-0.00453774176285
-0.00385465481158
0.00616963734082
-0.00478576472424
0.00375500555209
-0.00505304212787
0.00282607191508
-0.00506142755445
0.00298233964135
-0.00524640895177
0.00284649778562
-0.00561675736146
0.00266042201856
-0.0061498166117
0.00251320715232
-0.00676400646376
0.00234847681944
-0.00738397032172
0.00215911361157
-0.00796892483929
0.00195949825885
-0.00850121388916
0.00176104495333
-0.00897463780011
0.00157065674264
-0.00938886157149
0.0013926842738
-0.0097467068375
0.00122949417767
-0.0100525336877
0.00108177791272
-0.0103112461239
0.000949091714414
-0.0105277304407
0.000830386507302
-0.0107065769831
0.000724351143384
-0.010851954546
0.000629604886853
-0.0109675743918
0.000544797482557
-0.0110566919774
0.000468670034425
-0.0111221375383
0.000400079622099
-0.0111663497809
0.000338011629712
-0.0111914200102
0.000281572225462
-0.0111991279981
0.000229983068675
-0.0111909834644
0.000182565451877
-0.0111682558438
0.000138732795497
-0.0111320107792
9.79761901233e-05
-0.0110831304317
5.98583958219e-05
-0.0110223550891
2.40103484175e-05
-0.0109502835656
-9.87633347463e-06
-0.0108675200056
-4.19967736249e-05
-0.0107744320848
-7.26023329452e-05
-0.0106707297807
-0.000102328976813
-0.0105456271549
-0.000136618363289
-0.0103774717543
-0.00016847187746
-0.0102181989045
-0.000172742235812
-0.0100769411822
-0.000197233896286
-0.00995189744886
-0.000222721758349
-0.00984296635273
-0.000244893575413
-0.00975069728303
-0.00026562404248
-0.00967500706081
-0.000285793469328
-0.00961589408593
-0.000305561956372
-0.00957359513161
-0.0003251495682
-0.00954838989741
-0.000344891016566
-0.00954042840766
-0.000365135511101
-0.00954962895239
-0.000386227830331
-0.00957559465284
-0.000408523043263
-0.00961753889244
-0.000432400843973
-0.00967420242629
-0.000458259375076
-0.00974377914125
-0.000486509857045
-0.00982383665119
-0.000517559565608
-0.00991125184674
-0.000551799044326
-0.0100021494865
-0.000589575521426
-0.0100918690863
-0.000631168884852
-0.0101749529325
-0.00067675384926
-0.0102451838538
-0.000726366015637
-0.0102956680364
-0.000779858579201
-0.0103189886043
-0.000836869074046
-0.0103074200606
-0.000896787396717
-0.010253216034
-0.000958745572457
-0.0101489453689
-0.00102162309137
-0.00998786812887
-0.00108408546894
-0.0097643090198
-0.0011446467403
-0.00947400442648
-0.00120176582704
-0.00911437594324
-0.00125395759237
-0.00868471195257
-0.00129992545949
-0.00818623091583
-0.00133866837626
-0.00762201708746
-0.00136963418536
-0.00699685776742
-0.00139269582831
-0.00631691380508
-0.00140851778927
-0.00558934946635
-0.00141775762207
-0.00482129516332
-0.00142352722208
-0.00401955227068
-0.00142430586303
-0.00318750548069
-0.00143484969636
-0.00233371455976
-0.00142527071925
-0.00146258084439
-0.0015243199936
-0.00067354752115
-0.00147526004902
3.17908102699e-05
-0.00336320216246
-0.00450596213877
-0.00525126769229
0.0114213177111
-0.00382637149761
0.00233029380749
-0.00332438150258
0.00232418999076
-0.00352923650192
0.00318727564766
-0.00412338839118
0.0034407102757
-0.00491446268929
0.0034515377067
-0.00575099562749
0.00334976910626
-0.0065523227578
0.00314982469
-0.00728410427695
0.00289091034435
-0.00793817379317
0.00261357782414
-0.00851851628566
0.00234139188733
-0.00903341165439
0.00208555089965
-0.00949187704762
0.00185114182306
-0.0099022583828
0.00163986176801
-0.0102717652631
0.00145126410476
-0.0106064008627
0.00128370108044
-0.0109110641213
0.00113501682775
-0.0111897083735
0.00100295759187
-0.0114455166649
0.000885369189104
-0.0116810547948
0.000780287564751
-0.0118984067403
0.000685968388301
-0.0120992768825
0.000600892942077
-0.0122850781148
0.000523751167185
-0.0124569933342
0.000453423303262
-0.0126160310112
0.000388952371963
-0.0127630604195
0.000329524754162
-0.0128988468729
0.000274445511186
-0.0130240707928
0.000223125263341
-0.0131393494149
0.000175058999321
-0.0132452435383
0.000129825582111
-0.0133422502048
8.70482714309e-05
-0.013430783881
4.64536921548e-05
-0.0135111901827
7.71759756e-06
-0.0135851389744
-2.84687810975e-05
-0.0136618732444
-5.99773056526e-05
-0.0137202670746
-0.000110175094428
-0.0137381765888
-0.000154934952587
-0.0137315115336
-0.000204005757438
-0.0136975777644
-0.000256767242051
-0.0136339809986
-0.000308606757417
-0.0135408722301
-0.000358853357278
-0.0134187342778
-0.000408056336738
-0.0132680018159
-0.000456422249524
-0.0130893345595
-0.000503948173741
-0.0128837114567
-0.000550646774614
-0.0126524272673
-0.000596554559503
-0.0123970994309
-0.000641689969311
-0.0121197062974
-0.000686051064098
-0.0118226149761
-0.000729624584951
-0.011508603498
-0.000772402148836
-0.011180853647
-0.000814386793836
-0.0108429295828
-0.000855608018169
-0.0104987160645
-0.000896131353701
-0.0101523291014
-0.000936077322832
-0.00980797313911
-0.000975633169011
-0.00946976054512
-0.00101506997586
-0.00914147567328
-0.00105474746971
-0.00882630934996
-0.0010951162781
-0.00852656261058
-0.00113670020403
-0.00824336103191
-0.00118006805895
-0.00797639628671
-0.00122578259439
-0.00772374559213
-0.00127434076846
-0.00748178926799
-0.00132610211133
-0.00724526581021
-0.00138122512489
-0.00700746380523
-0.00143961602627
-0.006760559123
-0.00150090479767
-0.00649606283942
-0.00156445731323
-0.00620536374628
-0.00162939698395
-0.00588030890332
-0.0016947112375
-0.00551382582825
-0.00175919434634
-0.00510048173551
-0.00182186897614
-0.00463712278824
-0.00188111640463
-0.00412287508614
-0.00193776513769
-0.00355998817382
-0.00198717915594
-0.0029507731581
-0.00204404061114
-0.00230553062623
-0.00207049464941
-0.0016242339045
-0.00220559434473
-0.000978560755232
-0.00212088325808
-0.000264429686888
-0.00407736984034
-0.00477037057857
-0.00127647583485
0.0126978743153
-0.000845737669204
0.00189963680684
-0.00186187129156
0.00334039493122
-0.00304299382029
0.00436845648325
-0.00412740196983
0.00452516286041
-0.00509746449559
0.00442163259902
-0.00592352529246
0.00417585218186
-0.00660911111111
0.00383542578727
-0.0071791013111
0.00346091018399
-0.0076587412394
0.00309322244727
-0.00806822244643
0.00275087272093
-0.00842302323563
0.0024403455801
-0.00873458779401
0.00216269436477
-0.00901103486762
0.00191628993068
-0.00925798151182
0.00169818522308
-0.00947929280271
0.00150497919392
-0.00967764406711
0.00133332799884
-0.00985491790847
0.0011801833606
-0.0100124757917
0.00104287211035
-0.0101513461132
0.000919094923938
-0.0102723440601
0.000806896715223
-0.0103761507069
0.000704622131865
-0.0104633565617
0.000610873240479
-0.0105344903032
0.000524465674972
-0.0105900295441
0.000444394278736
-0.0106304091013
0.000369799667272
-0.0106560192219
0.00029994536023
-0.0106672050402
0.0002341937346
-0.0106642629923
0.00017199408759
-0.0106474267194
0.000112859298788
-0.0106168937058
5.63793791705e-05
-0.010572726183
2.14291318954e-06
-0.0105150476815
-5.01106455447e-05
-0.0104423870034
-0.000101286855672
-0.0103505770895
-0.000151952383181
-0.010266599772
-0.000194325485447
-0.010186575409
-0.000235139212377
-0.0101150962177
-0.000275671484696
-0.0100544230111
-0.000317633040367
-0.010002992753
-0.000360234655646
-0.00995930052525
-0.000402747862413
-0.00992215422119
-0.000445407881606
-0.00989015081663
-0.000488633612764
-0.00986158997252
-0.000532717517737
-0.00983453275404
-0.000577912955324
-0.00980680866367
-0.000624485610843
-0.00977601262439
-0.000672691070386
-0.00973952249211
-0.000722741828754
-0.00969455065974
-0.000774792920357
-0.00963821484022
-0.000828927938219
-0.00956763757541
-0.000885148005988
-0.00948006423048
-0.000943357156962
-0.00937300730894
-0.00100335663636
-0.00924440045168
-0.00106484333933
-0.00909276095561
-0.0011274235291
-0.00891733535687
-0.00119063676689
-0.00871821646227
-0.00125399892857
-0.00849639931556
-0.00131705635746
-0.00825376035849
-0.0013794535711
-0.00799293303901
-0.00144100056009
-0.00771707815577
-0.00150173450117
-0.00742954838579
-0.00156195887515
-0.00713347778991
-0.00162225326802
-0.00683133136912
-0.00168344384787
-0.00652447518603
-0.00174653695734
-0.00621282078517
-0.00181261593592
-0.00589460167245
-0.00188272572248
-0.00556633174328
-0.00195770840672
-0.00522296828775
-0.00203810879297
-0.00485833324483
-0.00212385551966
-0.00446577968256
-0.00221444106219
-0.00403934701571
-0.00230755916777
-0.00357486147378
-0.00240225491647
-0.00307247572776
-0.00248956062993
-0.00253548353684
-0.00258102884225
-0.00197830490069
-0.00262766096217
-0.00140130247742
-0.00278258933841
-0.000865814348293
-0.00265639818706
-0.000209869805033
-0.00473328147388
-0.00498027178421
4.71055618625e-05
0.0126509541912
-0.000362794877147
0.00230961488926
-0.00210947184206
0.00508712363209
-0.00352579046994
0.0057848173305
-0.00460230444194
0.00560171146415
-0.00543932151167
0.00525867668572
-0.00607947681281
0.00481602851915
-0.00657408676914
0.00433005184063
-0.00697232965948
0.00385916545607
-0.0073084920905
0.00342939367995
-0.00760410640363
0.00304649211478
-0.00787257283363
0.00270881291281
-0.00812197384869
0.0024120912936
-0.00835683025971
0.0021511368743
-0.00857941710538
0.00192075623807
-0.00879070648497
0.00171624631562
-0.00899097346139
0.00153356531648
-0.00918015788379
0.00136933100875
-0.00935807755519
0.00122074695263
-0.00952454594325
0.00108551099611
-0.0096794343555
0.000961724397076
-0.00982269526473
0.000847814666454
-0.00995436843783
0.000742469449186
-0.0100745732115
0.000644585795929
-0.0101834998542
0.000553227598803
-0.0102813963499
0.000467595144776
-0.0103685591403
0.000386998410515
-0.0104453232741
0.000310840338651
-0.0105120530296
0.000238597405095
-0.0105691444442
0.000169816078323
-0.010616988109
0.00010407909214
-0.0106560489701
4.10511854353e-05
-0.0106866323997
-1.96890132759e-05
-0.010709831315
-7.82592622809e-05
-0.0107248089875
-0.000137155592363
-0.0107196704879
-0.000199652632499
-0.0106941533029
-0.00026085207931
-0.0106480107396
-0.000322016055705
-0.010582385316
-0.000383465583271
-0.0104981943
-0.000444637186551
-0.010396343281
-0.000504813089758
-0.0102781921094
-0.00056377529224
-0.0101454191962
-0.000621622794909
-0.00999985617029
-0.000678496279116
-0.00984343527127
-0.000734546964788
-0.00967814537769
-0.000789985577717
-0.00950595135846
-0.000845090124336
-0.009328702385
-0.000900190574513
-0.00914803688277
-0.000955651149795
-0.0089652942135
-0.00101185627206
-0.00878143020009
-0.00106918913446
-0.00859695019354
-0.00112800591884
-0.00841186281668
-0.0011886032529
-0.00822567005483
-0.00125118620507
-0.00803739695469
-0.00131583677457
-0.00784567283133
-0.00138249161638
-0.00764886049883
-0.00145093206096
-0.00744523207931
-0.00152079631027
-0.00723317080045
-0.00159161688792
-0.00701137570373
-0.0016628889103
-0.00677903026459
-0.00173416437657
-0.00653589811803
-0.00180516730571
-0.00628230979778
-0.00187590976511
-0.00601901894957
-0.0019467953118
-0.00574692944915
-0.00201867955696
-0.00546671769775
-0.00209287369375
-0.00517839493551
-0.00217108762569
-0.00488089985344
-0.00225523596368
-0.00457176611566
-0.00234726890947
-0.00424700034592
-0.00244864131919
-0.00390123041688
-0.00256022517857
-0.00352844457402
-0.00268035358182
-0.00312291791835
-0.00280778505082
-0.00268201322132
-0.00293046741757
-0.00220585467667
-0.00305718498144
-0.00170729696506
-0.00312621997396
-0.00118743583904
-0.00330245113505
-0.000722336171083
-0.00312148312432
-0.000130791693738
-0.00532488127944
-0.00511107402978
0.000318264774141
0.012332645834
-0.000802599545092
0.00343048908352
-0.00279065595182
0.00707520497992
-0.0040505375402
0.00704472623253
-0.00489823515175
0.00644943524155
-0.00549578649224
0.00585625207863
-0.00591828971256
0.00523855293591
-0.00623569596843
0.00464747706204
-0.00649806086023
0.00412154708683
-0.00673368136354
0.00366502903752
-0.00695725013126
0.00327007349664
-0.00717586335652
0.00292743613498
-0.00739218318386
0.0026284178834
-0.00760631465133
0.00236527110934
-0.00781703931882
0.00213147915
-0.00802258876244
0.00192178865551
-0.00822108476477
0.00173204860332
-0.00841076985158
0.00155899700418
-0.00859011400559
0.0014000656471
-0.00875785271647
0.00125321718396
-0.00891298428912
0.00111681660031
-0.00905474808571
0.000989531592193
-0.00918259179279
0.000870259139171
-0.00929613811121
0.000758070309192
-0.00939515074825
0.000652171075381
-0.0094795052297
0.00055187246702
-0.00954916144219
0.000456569891563
-0.00960414105028
0.000365726961861
-0.00964450829758
0.000278863694366
-0.00967035028181
0.000195548422507
-0.00968177052129
0.000115381254523
-0.00967883875587
3.7992546479e-05
-0.00966161018504
-3.70531513262e-05
-0.00962991941864
-0.000110094288031
-0.00958780588083
-0.000179421694852
-0.00954150695247
-0.00024611028416
-0.00949079574799
-0.000311727503695
-0.0094366874109
-0.000376292938663
-0.00937974913277
-0.000440576003926
-0.00931974222792
-0.000504818345409
-0.00925581647423
-0.000568914465506
-0.00918691320472
-0.000632853928957
-0.00911192124728
-0.000696789165528
-0.00902969072499
-0.000760898672422
-0.0089390804781
-0.000825325947784
-0.00883903378235
-0.000890196459927
-0.00872864637148
-0.000955636725102
-0.00860721617225
-0.00102177380523
-0.00847428198785
-0.00108873191728
-0.00832964640426
-0.00115663111132
-0.0081733803186
-0.00122558701023
-0.00800580300963
-0.0012957069578
-0.00782743905368
-0.0013670828798
-0.00763895253623
-0.00143978000762
-0.00744106584661
-0.00151382248875
-0.00723447188983
-0.00158917625311
-0.00701975465053
-0.00166573187652
-0.00679733379933
-0.00174329176621
-0.00656744926479
-0.0018215683836
-0.00633019436051
-0.00190020341088
-0.00608559733237
-0.00197881400163
-0.00583373167088
-0.00205707890036
-0.00557482895005
-0.00213485207363
-0.00530934419712
-0.00221231363306
-0.00503794101376
-0.00229011045505
-0.0047613592458
-0.00236947792721
-0.00448014663782
-0.00245231729299
-0.00419432551213
-0.00254107016444
-0.00390298417457
-0.00263861855882
-0.00360396311665
-0.00274766770609
-0.00329366351143
-0.00287052614084
-0.00296737136454
-0.00300664526737
-0.00261970701341
-0.00315544729746
-0.00224688285508
-0.00330328967036
-0.00184623680236
-0.00345783203346
-0.00142706203872
-0.00354539472102
-0.000987441032713
-0.00374207313415
-0.000614007657574
-0.00349494847561
-9.45750437445e-05
-0.00584432471006
-0.00520567467935
0.000310311448633
0.0120223776649
-0.00130360748497
0.00504442262054
-0.00325036865376
0.00902197841144
-0.00422683341251
0.00802120761399
-0.00483265048591
0.007055272104
-0.00523092093432
0.00625454350502
-0.00550463894469
0.0055122924576
-0.00572223705078
0.00486509627374
-0.00592231213572
0.00432164297123
-0.00612237127733
0.00386510823623
-0.00632936464745
0.00347708612786
-0.00654481222461
0.00314290159258
-0.0067672981845
0.00285091987833
-0.00699399699314
0.00259198341507
-0.00722160771305
0.00235910018078
-0.00744687649022
0.00214706398716
-0.0076668581394
0.0019520324317
-0.00787902756546
0.00177116388707
-0.0080813068608
0.0016023371539
-0.00827204595393
0.00144394309903
-0.0084499812196
0.00129473285714
-0.00861418459831
0.00115371012863
-0.00876401231408
0.00102005578852
-0.00889905597713
0.000893076759305
-0.00901909957511
0.000772170952635
-0.00912408138705
0.000656804145029
-0.00921406253996
0.000546494141744
-0.00928920026722
0.000440801030193
-0.00934972797332
0.000339320618542
-0.00939593895305
0.000241681440395
-0.00942818680697
0.000147543758925
-0.00944688941846
5.66026073456e-05
-0.00945265918101
-3.13829391274e-05
-0.00944621023854
-0.000116649984068
-0.00942493689589
-0.000200807624255
-0.00938802398103
-0.000283140024103
-0.00933594528984
-0.00036392622565
-0.00926904027037
-0.000443320572501
-0.00918832472662
-0.000521415506397
-0.00909499006544
-0.000598277642314
-0.00899018645121
-0.000673842133374
-0.00887508490108
-0.000748078302799
-0.00875089697316
-0.000821097535446
-0.00861879267196
-0.00089312046019
-0.00847980705999
-0.00096442514626
-0.00833477917718
-0.00103533356535
-0.00818431259785
-0.0011062074727
-0.00802875272829
-0.00117743243654
-0.00786818489139
-0.00124939267086
-0.00770245752235
-0.00132244529693
-0.00753122842929
-0.00139689661206
-0.00735402855542
-0.00147298086443
-0.00717033565855
-0.00155084332757
-0.00697964772358
-0.00163052892472
-0.00678154591993
-0.00171197887472
-0.0065757366916
-0.00179503366651
-0.0063620676926
-0.00187944298122
-0.0061405167164
-0.00196487886805
-0.00591116331189
-0.00205095234299
-0.00567415452766
-0.00213723734953
-0.0054296894696
-0.00222329924454
-0.00517802466285
-0.00230875900159
-0.00491952345677
-0.00239336429529
-0.00465470522783
-0.00247713829533
-0.00438429712721
-0.00256052139282
-0.00410922245939
-0.00264455123276
-0.00383046843786
-0.00273106720985
-0.00354890371882
-0.00282262764625
-0.00326492721513
-0.00292258640564
-0.00297820631785
-0.0030343782663
-0.002687383125
-0.00316133855513
-0.00239023255148
-0.0033037846691
-0.00208398182924
-0.00346168939486
-0.00176686422781
-0.00362040191767
-0.00143708683372
-0.00378760964145
-0.00110319025566
-0.00387929371419
-0.000759590783475
-0.00408568101186
-0.000496002211024
-0.00375853991976
-6.0952861737e-05
-0.00627941722231
-0.00526665441833
0.000229152628197
0.0117931544877
-0.00177092385246
0.00704447297216
-0.00348381572627
0.010734866598
-0.00413868530475
0.00867608423869
-0.0045457506141
0.00746235140477
-0.00480796649153
0.00651677781874
-0.00499956993006
0.00570391638961
-0.00517530049519
0.00504084848274
-0.00535873526598
0.00450509958537
-0.00555769901197
0.00406409392827
-0.00577333939396
0.00369274806927
-0.00600341201421
0.00337299518404
-0.00624397717759
0.00309150482154
-0.00649052819706
0.00283855255926
-0.00673863836164
0.0026072261813
-0.00698428658173
0.00239272524345
-0.00722399158584
0.0021917471826
-0.00745484576675
0.00200202410774
-0.00767449239013
0.00182198580525
-0.0078810737163
0.00165052213329
-0.00807316763821
0.00148682000441
-0.00824972283479
0.00133025383624
-0.00840999711655
0.00118031378627
-0.00855350183723
0.00103656021511
-0.00867995260072
0.000898595417071
-0.00878922655717
0.000766046608582
-0.00888132566067
0.000638556460098
-0.00895634598237
0.000515779120572
-0.00901445252118
0.000397379311009
-0.00905586228821
0.000283037679486
-0.00908082704567
0.000172449325773
-0.00908964074797
6.53516859499e-05
-0.00908257180003
-3.85218965071e-05
-0.00906008560838
-0.00013921086574
-0.00902432806983
-0.000236643618337
-0.00897613706982
-0.000331411590279
-0.00891604145048
-0.000424104049477
-0.00884447067889
-0.000514974162337
-0.00876173765067
-0.000604231442995
-0.0086681060146
-0.000691991290928
-0.00856375999299
-0.000778268767871
-0.00844886721476
-0.000863049429623
-0.00832366817055
-0.000946372215274
-0.00818851195035
-0.00102834892397
-0.00804385349362
-0.00110915208925
-0.00789023875855
-0.00118901257424
-0.00772828038092
-0.00126822563019
-0.00755861892508
-0.00134714894204
-0.00738187378033
-0.00142618791818
-0.00719859266992
-0.00150577152111
-0.00700920833719
-0.00158632090607
-0.00681401048415
-0.00166821364648
-0.00661313766759
-0.00175174592649
-0.00640659314911
-0.00183709833082
-0.00619428051863
-0.00192431144443
-0.00597605458304
-0.00201327494194
-0.0057517741401
-0.00210373420087
-0.00552134667913
-0.00219531294692
-0.00528475609299
-0.00228754546999
-0.00504206495372
-0.00237992736873
-0.00479341471946
-0.00247194458648
-0.00453900357167
-0.0025631622573
-0.00427911622396
-0.00265324005812
-0.00401413558161
-0.0027421047974
-0.00374461591891
-0.00283002340168
-0.00347133020761
-0.00291781693494
-0.0031952062078
-0.0030071689781
-0.0029173358391
-0.00310047469774
-0.00263870151402
-0.00320119734964
-0.00236021407586
-0.00331284192717
-0.00208220704704
-0.00343932349233
-0.00180493259588
-0.00358103981392
-0.00152915859723
-0.00373744842408
-0.00125717438847
-0.00389238012692
-0.000990624240587
-0.00405415860748
-0.000738558923727
-0.00413136721567
-0.000497742362357
-0.00432650092819
-0.000345076632472
-0.0039112329865
-1.82712404915e-08
-0.00662451764814
-0.00526669002005
0.000113519133492
0.011679625966
-0.00212546067645
0.00928343767576
-0.00348372972193
0.0120931255899
-0.00385951490579
0.00905187030383
-0.00414187131856
0.00774471735695
-0.00433129480453
0.00670621663442
-0.00449236574468
0.00586500639425
-0.00466329183114
0.00521179529628
-0.00485539080008
0.00469722020678
-0.00507033012322
0.00427905504532
-0.00530582841135
0.00392826818248
-0.00555748880432
0.00362467693177
-0.00582002907202
0.00335406575335
-0.00608813536559
0.0031066782365
-0.00635690063737
0.0028760092091
-0.00662202827351
0.00265786845344
-0.00687988458403
0.00244961658788
-0.00712748685874
0.00224963658849
-0.00736245077467
0.0020569568602
-0.00758292088442
0.00187099604389
-0.00778749754967
0.00169139705152
-0.00797516695135
0.00151792001716
-0.00814523669545
0.00135037667935
-0.00829727882709
0.00118859172183
-0.00843107918733
0.00103238137712
-0.00854659300806
0.000881542099961
-0.00864390616824
0.000735847370771
-0.00872320175716
0.000595048328368
-0.00878473364041
0.000458880738403
-0.00882880359341
0.000327072965135
-0.00885575246959
0.000199359561198
-0.00886594696844
7.55037085646e-05
-0.00885979041022
-4.47241893513e-05
-0.00883762739036
-0.000161422777356
-0.00879910356377
-0.000275217893055
-0.00874439223021
-0.000386174209357
-0.00867401697462
-0.000494530622759
-0.00858864065625
-0.000600401446785
-0.0084890943478
-0.000703827618275
-0.00837631194822
-0.000804822075003
-0.00825124953664
-0.000903377446574
-0.00811484256327
-0.000999500203414
-0.00796799732396
-0.00109325831046
-0.00781158021775
-0.00118480364637
-0.00764639821008
-0.00127436818226
-0.00747318461364
-0.00136225648976
-0.00729259478783
-0.00144884190622
-0.00710520645169
-0.00153455967058
-0.00691152035169
-0.0016198924172
-0.00671195870325
-0.00170534742426
-0.00650686230236
-0.00179142761925
-0.00629648606707
-0.00187859613677
-0.00608099666397
-0.00196723782505
-0.00586047646209
-0.00205761719931
-0.00563493578799
-0.00214984730805
-0.00540433741486
-0.0022438650347
-0.00516862935752
-0.00233943088032
-0.00492778058654
-0.00243614719926
-0.00468181954234
-0.00253348940397
-0.00443083940564
-0.00263088735793
-0.00417502994486
-0.00272773164492
-0.00391462556952
-0.00282354129755
-0.00364996028778
-0.00291787763211
-0.00338140110475
-0.00301063373566
-0.00310944667951
-0.00310194484117
-0.00283481965501
-0.00319240890872
-0.00255838525232
-0.0032835669983
-0.00228122027358
-0.0033776042496
-0.00200446106745
-0.00347792224404
-0.00173017656055
-0.00358709538905
-0.00145985785709
-0.00370961420167
-0.00119624962106
-0.00384462478565
-0.000944781085366
-0.0039889023887
-0.000712229347898
-0.00412492266159
-0.000506862582661
-0.00425953156135
-0.000330607471876
-0.00430762512252
-0.000219265229935
-0.00443785866907
-0.000150742006333
-0.00397977654275
0.000143829729691
-0.00691911579091
-0.00512290000091
-4.49019353752e-06
0.0116840492583
-0.00235423408618
0.011633143026
-0.00331155054656
0.0130504249628
-0.00349255045891
0.00923286578968
-0.00371625938323
0.00796843210493
-0.00387390371828
0.00686387392232
-0.00403198363162
0.00602310317563
-0.0042137485219
0.005393579146
-0.00442282786204
0.00490631908538
-0.00465763929675
0.00451388624308
-0.00491390168815
0.00418455005816
-0.00518593983158
0.00389673426433
-0.00546773725396
0.00363588161332
-0.00575360400399
0.00339256250804
-0.00603846140149
0.00316088268284
-0.0063179696142
0.002937391102
-0.00658851606312
0.00272017538329
-0.00684717465771
0.00250830534755
-0.00709163141093
0.00230142127944
-0.00732010405164
0.00209947386964
-0.00753126606042
0.0019025615452
-0.00772417541361
0.00171082922658
-0.00789821120453