/*--------------------------------*- C++ -*----------------------------------*\
| =========                 |                                                 |
| \\      /  F ield         | OpenFOAM: The Open Source CFD Toolbox           |
|  \\    /   O peration     | Version:  v1806                                 |
|   \\  /    A nd           | Web:      www.OpenFOAM.com                      |
|    \\/     M anipulation  |                                                 |
\*---------------------------------------------------------------------------*/
FoamFile
{
    version     2.0;
    format      ascii;
    class       volVectorField;
    location    "500";
    object      U;
}
// * * * * * * * * * * * * * * * * * * * * * * * * * * * * * * * * * * * * * //

dimensions      [0 1 -1 0 0 0 0];


internalField   nonuniform List<vector> 
6400
(
(0.00918071144727 0.0191796735698 0)
(0.0228611499179 0.0127349164845 0)
(0.0296659471755 0.00957087964326 0)
(0.0283707096468 0.00772331151201 0)
(0.0230369252953 3.1845827082e-05 0)
(-0.00824608941106 -0.0149230848422 0)
(-0.0354832634238 -0.0158403537092 0)
(-0.0596155498761 -0.0149583920913 0)
(-0.0845125058958 -0.0143821575923 0)
(-0.108900973595 -0.0137797766577 0)
(-0.132518468959 -0.0131008154494 0)
(-0.155133650994 -0.012363806223 0)
(-0.176588573806 -0.0115947280456 0)
(-0.196785685209 -0.0108168836704 0)
(-0.215676748503 -0.0100486410308 0)
(-0.233251833008 -0.00930340707674 0)
(-0.24952943125 -0.00859024138474 0)
(-0.264548021728 -0.0079146423116 0)
(-0.27835916777 -0.00727932978286 0)
(-0.29102208766 -0.00668495085626 0)
(-0.302599542145 -0.0061306781754 0)
(-0.313154842969 -0.00561469476662 0)
(-0.322749775874 -0.00513457123988 0)
(-0.331443242598 -0.00468754840364 0)
(-0.339290449366 -0.00427074063171 0)
(-0.346342495965 -0.00388127552599 0)
(-0.352646250146 -0.00351638358243 0)
(-0.358244413666 -0.00317344946906 0)
(-0.363175707561 -0.00285003312336 0)
(-0.367475118184 -0.00254386580966 0)
(-0.371174169429 -0.0022528258529 0)
(-0.37430121739 -0.00197490213689 0)
(-0.376881725249 -0.00170812699951 0)
(-0.37893838081 -0.00145038153001 0)
(-0.380490790542 -0.00119900214817 0)
(-0.381554760102 -0.000950534599835 0)
(-0.382142044919 -0.000701422492669 0)
(-0.382263682921 -0.000449957533631 0)
(-0.381929193506 -0.000196916992979 0)
(-0.381137711335 5.3221190006e-05 0)
(-0.379903723885 0.000297240249752 0)
(-0.378239199633 0.000534938965432 0)
(-0.376155498575 0.000766950979022 0)
(-0.373662502482 0.000994191871432 0)
(-0.370768427988 0.00121765987412 0)
(-0.367479775797 0.00143836541984 0)
(-0.363801341944 0.00165730119678 0)
(-0.359736265089 0.00187542218734 0)
(-0.355286108772 0.00209362555636 0)
(-0.350450985612 0.00231272677277 0)
(-0.345229732159 0.00253343225968 0)
(-0.339620141485 0.00275630968341 0)
(-0.333619256701 0.00298175897852 0)
(-0.327223722887 0.00320998723828 0)
(-0.32043018776 0.00344099215891 0)
(-0.313235733321 0.00367455825394 0)
(-0.305638312126 0.00391027110918 0)
(-0.297637153395 0.00414755388216 0)
(-0.289233096367 0.00438573073475 0)
(-0.280428802075 0.00462412021724 0)
(-0.271228790178 0.00486216155629 0)
(-0.261639245072 0.00509957495931 0)
(-0.251667535827 0.00533655665834 0)
(-0.241321397347 0.00557400742225 0)
(-0.230607724517 0.00581379282624 0)
(-0.21953093464 0.00605903264566 0)
(-0.208090863931 0.00631441709152 0)
(-0.196280189898 0.00658653480656 0)
(-0.184081392471 0.00688418993366 0)
(-0.171463245157 0.00721867626956 0)
(-0.158376832603 0.00760391803043 0)
(-0.144751489807 0.00805636800643 0)
(-0.130492358231 0.00859427507797 0)
(-0.11548180351 0.0092349426807 0)
(-0.0995800746502 0.00998784671007 0)
(-0.0826109785469 0.0108451592676 0)
(-0.0643733976969 0.0117768987535 0)
(-0.0449476717146 0.0126923874674 0)
(-0.0257026743462 0.0131055126839 0)
(-0.0101970943889 0.010801133356 0)
(0.000278020663011 0.028475183525 0)
(0.0119687016326 0.0153951016284 0)
(0.00796243147932 -0.000855778667764 0)
(-0.0213991872201 -0.0215013987182 0)
(-0.0400104002289 -0.0298213877812 0)
(-0.0626600661764 -0.0354985048617 0)
(-0.0863691953983 -0.0370274480744 0)
(-0.110781540919 -0.0371109088035 0)
(-0.135573064077 -0.0366580305198 0)
(-0.159830072167 -0.0357149787776 0)
(-0.183198809158 -0.0343768968301 0)
(-0.205430221607 -0.0327491394359 0)
(-0.226370844501 -0.030928494867 0)
(-0.245934648061 -0.0289970486521 0)
(-0.264087379786 -0.0270206313491 0)
(-0.280833366456 -0.0250495644399 0)
(-0.296204524531 -0.0231204363285 0)
(-0.310251367333 -0.0212582901408 0)
(-0.323035879649 -0.0194788698333 0)
(-0.334626069158 -0.0177907187867 0)
(-0.345091957768 -0.0161970204455 0)
(-0.354502758473 -0.0146971361147 0)
(-0.362924991755 -0.0132878387244 0)
(-0.370421320609 -0.0119642678315 0)
(-0.377049917837 -0.0107206440063 0)
(-0.382864212748 -0.00955078498608 0)
(-0.387912899007 -0.00844846414767 0)
(-0.392240114344 -0.00740764555587 0)
(-0.395885722552 -0.00642262360404 0)
(-0.398885641841 -0.00548808792974 0)
(-0.401272179765 -0.00459913705732 0)
(-0.403074399765 -0.00375126075332 0)
(-0.404318573684 -0.00294024249602 0)
(-0.405028622393 -0.00216175543828 0)
(-0.405225898708 -0.00141062724984 0)
(-0.404927484343 -0.000681356093571 0)
(-0.40414387739 2.80856994437e-05 0)
(-0.402907166258 0.000715807734589 0)
(-0.401243914083 0.00138238101612 0)
(-0.399184133336 0.00202976998501 0)
(-0.396739607691 0.00265832936493 0)
(-0.393920459871 0.00326980711773 0)
(-0.390734272496 0.00386639089108 0)
(-0.387187093936 0.00445043716535 0)
(-0.383283648529 0.00502435166888 0)
(-0.379027386207 0.00559053418963 0)
(-0.374420486091 0.00615134000886 0)
(-0.369463863672 0.00670903782808 0)
(-0.364157204841 0.00726575582108 0)
(-0.358499041778 0.00782341362153 0)
(-0.352486882214 0.00838364174954 0)
(-0.346117400349 0.00894769301226 0)
(-0.339386693669 0.00951635292739 0)
(-0.332290604284 0.0100898586042 0)
(-0.324825096472 0.0106678372506 0)
(-0.316986674093 0.011249276644 0)
(-0.308772813213 0.0118325400754 0)
(-0.300182376796 0.0124154378536 0)
(-0.291215970788 0.0129953660166 0)
(-0.281876194635 0.0135695205055 0)
(-0.27216773549 0.0141351920567 0)
(-0.262097253683 0.0146901438665 0)
(-0.25167300835 0.0152330706974 0)
(-0.240904176048 0.0157641350837 0)
(-0.229799823513 0.0162855709045 0)
(-0.218367501923 0.0168023458037 0)
(-0.20661143526 0.0173228733867 0)
(-0.194530303292 0.0178597384006 0)
(-0.182114656504 0.0184303617598 0)
(-0.169343949901 0.0190575768214 0)
(-0.15618321653 0.0197698831108 0)
(-0.142579699593 0.0206010941143 0)
(-0.12846036842 0.0215886838038 0)
(-0.113731641995 0.022768080379 0)
(-0.0982800605657 0.0241582804865 0)
(-0.0819678762925 0.0257393913765 0)
(-0.0646359406254 0.0274298462287 0)
(-0.0462340510634 0.0289982981991 0)
(-0.0274545192088 0.029556097546 0)
(-0.0111634521926 0.0261802422715 0)
(-0.00739653549825 0.0271374825676 0)
(-0.0148554856175 -0.00458257515717 0)
(-0.0345395603019 -0.0261046947713 -8.20181240168e-29)
(-0.0544851489386 -0.0405604272896 5.13991868016e-29)
(-0.0749819411953 -0.050914493788 3.91245266921e-29)
(-0.0963058076649 -0.0579650381193 -3.20073713624e-29)
(-0.118158516442 -0.0609320967205 2.73941887343e-29)
(-0.140517670763 -0.0615432082337 -2.43675532971e-29)
(-0.162813683131 -0.0607986540095 0)
(-0.184455737647 -0.059072704059 0)
(-0.205119237858 -0.0566450843722 0)
(-0.22459649373 -0.0537375745376 0)
(-0.242777491731 -0.0505303523998 0)
(-0.259618210609 -0.0471670353893 0)
(-0.275121125299 -0.0437584040389 0)
(-0.28932024264 -0.0403864806292 0)
(-0.302269733606 -0.0371089800192 0)
(-0.314035370808 -0.033963823677 0)
(-0.324688271842 -0.0309734051936 0)
(-0.334300509472 -0.0281483898847 0)
(-0.342942186853 -0.0254909362706 0)
(-0.350679620267 -0.0229973139637 0)
(-0.357574327265 -0.0206599527675 0)
(-0.363682579417 -0.0184689917797 0)
(-0.369055330979 -0.0164134116289 0)
(-0.373738390215 -0.0144818330421 0)
(-0.377772734368 -0.0126630568796 0)
(-0.381194903136 -0.0109464075572 0)
(-0.384037422133 -0.0093219298619 0)
(-0.386329210965 -0.0077804841234 -6.82519637395e-29)
(-0.388095971031 -0.00631377860803 6.81951194675e-29)
(-0.389360574207 -0.00491435050703 0)
(-0.390143748108 -0.00357541449466 0)
(-0.390464840499 -0.00229039393398 0)
(-0.390340567694 -0.00105248555642 0)
(-0.389779621502 0.000143394420787 0)
(-0.388807072895 0.00129410439026 0)
(-0.387446537804 0.00239781175356 0)
(-0.3856992775 0.00346149921541 0)
(-0.383575538645 0.00449179187707 0)
(-0.381083584449 0.00549425244014 0)
(-0.378231309254 0.00647289301133 0)
(-0.375025502628 0.00743135548855 0)
(-0.371471813855 0.00837319379481 0)
(-0.367574722543 0.00930195944622 0)
(-0.363337506319 0.010221209918 0)
(-0.358762208081 0.0111344775722 0)
(-0.353849617989 0.0120452079788 0)
(-0.348599285761 0.0129566690411 0)
(-0.343009578157 0.0138718330845 0)
(-0.337077795064 0.0147932359695 0)
(-0.330800355117 0.01572282151 0)
(-0.324173057777 0.0166617827654 0)
(-0.317191422876 0.0176104162861 0)
(-0.309851101049 0.0185680078626 0)
(-0.302148339579 0.0195327709275 0)
(-0.294080478973 0.0205018583176 0)
(-0.285646446502 0.02147146776 0)
(-0.276847204232 0.0224370584942 0)
(-0.267686102497 0.0233936921003 0)
(-0.258169085855 0.0243365042238 0)
(-0.248304697769 0.0252613084849 0)
(-0.23810383273 0.0261653250131 0)
(-0.227579188605 0.0270480240269 0)
(-0.21674438571 0.0279120580177 0)
(-0.20561273364 0.0287642584991 0)
(-0.194195618146 0.0296166786307 0)
(-0.182500490141 0.0304876405651 0)
(-0.170528570964 0.0314025597935 0)
(-0.158272220191 0.0323946913086 0)
(-0.145711940114 0.0335053583197 0)
(-0.132813368985 0.0347830829442 0)
(-0.119524407261 0.0362810376784 0)
(-0.105772613501 0.03804982627 0)
(-0.0914639821137 0.040119893566 0)
(-0.0764828549594 0.0424688247504 0)
(-0.0606822206551 0.0449680481267 0)
(-0.0438965184345 0.047235873231 0)
(-0.0264636339638 0.0480402290785 0)
(-0.0102498711463 0.0441108865358 0)
(-0.0183799181031 0.0126572536937 0)
(-0.034532613664 -0.0230437589018 0)
(-0.0541915812308 -0.0441375754422 0)
(-0.0746758099967 -0.060240356025 0)
(-0.0951578401461 -0.0715667986739 0)
(-0.115603400164 -0.0788922911218 0)
(-0.135936202088 -0.0822300230341 0)
(-0.156088438255 -0.0827867302736 0)
(-0.175720170843 -0.081460657458 0)
(-0.194529262974 -0.0788019549052 0)
(-0.212324623052 -0.0752296874664 0)
(-0.228992115693 -0.0710658163486 0)
(-0.244485740832 -0.0665610842057 0)
(-0.258806268868 -0.0619076601946 0)
(-0.271985323771 -0.0572483697414 0)
(-0.284072847146 -0.0526848684727 0)
(-0.295128053295 -0.0482853577449 0)
(-0.305213234745 -0.0440917450781 0)
(-0.314389794878 -0.0401260143068 0)
(-0.322715918358 -0.0363956381157 0)
(-0.330245377976 -0.032897981995 0)
(-0.337027082907 -0.0296237487763 0)
(-0.343105078696 -0.0265595768643 0)
(-0.348518800707 -0.0236899332616 0)
(-0.353303451056 -0.0209984453162 0)
(-0.357490423551 -0.0184688021902 0)
(-0.36110773361 -0.0160853340707 0)
(-0.364180430955 -0.0138333541662 0)
(-0.366730976428 -0.0116993317278 0)
(-0.36877956152 -0.00967096112503 0)
(-0.370344385427 -0.00773716907223 0)
(-0.371442025149 -0.00588801227184 0)
(-0.372088207932 -0.00411432018946 0)
(-0.372298428482 -0.00240726113572 0)
(-0.372085056286 -0.000758993715995 0)
(-0.371449008514 0.000834756262062 0)
(-0.37043381402 0.00237181538956 0)
(-0.369031248057 0.0038554411169 0)
(-0.36725482289 0.0052926814922 0)
(-0.36511367049 0.00668838773083 0)
(-0.362616343783 0.00804766148136 0)
(-0.359770557328 0.00937534665906 0)
(-0.356583046503 0.0106761790188 0)
(-0.353059509053 0.0119548845719 0)
(-0.349204541475 0.0132162321254 0)
(-0.345021569022 0.0144650382605 8.18722907421e-29)
(-0.340512777561 0.0157061275818 -8.26171073216e-29)
(-0.335679061379 0.0169442483662 0)
(-0.330520003151 0.0181839435983 0)
(-0.325033903105 0.0194293794124 0)
(-0.319217874188 0.0206841368858 0)
(-0.31306801817 0.0219509781501 0)
(-0.306579693783 0.0232316037338 0)
(-0.299747881635 0.0245264238205 0)
(-0.292567641967 0.0258343710989 0)
(-0.285034650782 0.0271527859347 0)
(-0.277145789128 0.0284774048372 0)
(-0.268899750353 0.0298024811644 1.20342796194e-28)
(-0.26029761937 0.031121065104 -1.23318256184e-28)
(-0.25134336978 0.0324254615452 0)
(-0.24204422173 0.0337078742758 0)
(-0.232410800929 0.034961240313 0)
(-0.222457047397 0.036180234936 0)
(-0.212199820318 0.037362442493 0)
(-0.201658165879 0.0385096420417 0)
(-0.190852249131 0.0396291730207 0)
(-0.179801945087 0.040735322106 0)
(-0.168524924791 0.0418508773015 0)
(-0.157034619473 0.0430080571841 0)
(-0.145337911545 0.0442496670321 0)
(-0.133432229587 0.0456297407739 0)
(-0.121302725998 0.0472124231527 0)
(-0.108919337606 0.0490694889023 0)
(-0.0962325195704 0.051273730694 0)
(-0.0831691385899 0.0538818324738 0)
(-0.0696324671995 0.0568971539969 0)
(-0.0554811495691 0.0601989646384 0)
(-0.040431243157 0.063385930467 0)
(-0.0247490028706 0.0650071790147 0)
(-0.00912557051691 0.0612612538944 0)
(-0.0247607350389 -0.0186104102484 0)
(-0.0414560815711 -0.0439464824646 0)
(-0.063519280113 -0.0647987102767 0)
(-0.0848906796169 -0.0807875685867 0)
(-0.105374661924 -0.0918475165527 0)
(-0.125030282492 -0.0985948482539 0)
(-0.143940394429 -0.101499049188 0)
(-0.162132929646 -0.101508919338 0)
(-0.179484450414 -0.099412794005 0)
(-0.195891661099 -0.0958150274287 0)
(-0.211294874054 -0.0912024635444 0)
(-0.225672361673 -0.0859567985833 0)
(-0.239035888607 -0.0803725038555 0)
(-0.251418802398 -0.0746701306014 0)
(-0.262866408317 -0.0690086075708 0)
(-0.273428558894 -0.0634968027313 0)
(-0.283154881126 -0.0582042367056 0)
(-0.292092130759 -0.0531706084651 0)
(-0.300283049823 -0.0484138720305 0)
(-0.307766148004 -0.0439367777553 0)
(-0.314575967666 -0.0397319540235 0)
(-0.32074354189 -0.0357857107058 0)
(-0.326296881636 -0.0320807912465 0)
(-0.33126141042 -0.0285983007933 0)
(-0.335660325996 -0.0253190127657 0)
(-0.339514891095 -0.0222242202488 0)
(-0.342844672747 -0.0192962603443 0)
(-0.345667744113 -0.0165188045327 0)
(-0.348000838106 -0.0138769889929 0)
(-0.349859475364 -0.0113574560079 0)
(-0.351258072964 -0.00894834516386 -7.34403134903e-29)
(-0.3522104045 -0.0066391166368 7.37132396952e-29)
(-0.352730369032 -0.00441996518584 0)
(-0.352831522162 -0.00228148944655 0)
(-0.352522311279 -0.000217197836916 0)
(-0.351800987681 0.00177215594372 0)
(-0.350719273349 0.00368942450817 0)
(-0.349263073204 0.00554482927722 0)
(-0.347446410572 0.00734437442774 0)
(-0.345277433634 0.00909403050547 0)
(-0.342764359115 0.0107995788609 0)
(-0.339914799216 0.0124666498359 0)
(-0.336735607476 0.0141008542345 0)
(-0.333232745358 0.0157078849724 0)
(-0.329411159648 0.0172935736459 0)
(-0.325274659812 0.0188638955451 0)
(-0.320825799765 0.0204249192371 0)
(-0.31606577639 0.0219826969362 0)
(-0.310994361931 0.0235430931336 0)
(-0.305609890406 0.0251115524646 0)
(-0.299909319443 0.0266928131293 0)
(-0.293888388166 0.0282905793574 0)
(-0.287541888221 0.0299071746563 0)
(-0.280864058025 0.0315432064558 0)
(-0.27384910012 0.0331972797371 0)
(-0.266491807885 0.0348658023188 0)
(-0.258788274705 0.0365429248965 0)
(-0.2507366483 0.0382206531647 0)
(-0.242337878614 0.039889171453 0)
(-0.233596394784 0.0415374055024 0)
(-0.224520649728 0.0431538244671 0)
(-0.215123456507 0.0447275066759 0)
(-0.20542207057 0.0462494025669 0)
(-0.195437947191 0.0477138343348 0)
(-0.185196137614 0.0491201061271 0)
(-0.174724310179 0.0504742649375 0)
(-0.164051631492 0.0517906042478 0)
(-0.153206655284 0.0530941042892 0)
(-0.142215508019 0.0544209569241 0)
(-0.131099971378 0.0558201928198 0)
(-0.11987443144 0.057355274132 0)
(-0.10854288344 0.0591023176589 0)
(-0.0970965083044 0.0611482304643 0)
(-0.0855091670981 0.0635864345483 0)
(-0.0737295704965 0.0665023099581 0)
(-0.0616809634987 0.0699362327465 0)
(-0.0492522086733 0.0738023235108 0)
(-0.0360200473932 0.0777797584917 0)
(-0.0224593347077 0.0803351584062 0)
(-0.00785508627613 0.0770607417996 0)
(-0.0221160962043 -0.0431979984543 0)
(-0.0421769212647 -0.0682135543496 0)
(-0.0665661111978 -0.0872772111331 0)
(-0.0884814254881 -0.10185072934 0)
(-0.108807878267 -0.111696841074 0)
(-0.12770330122 -0.117306629481 0)
(-0.145372935961 -0.119244644891 0)
(-0.161957004579 -0.118323615199 0)
(-0.177496022669 -0.115269742232 0)
(-0.192024472834 -0.110694662687 0)
(-0.205582035165 -0.105105706116 0)
(-0.218215227069 -0.0989061835442 0)
(-0.22997556244 -0.0924057096694 0)
(-0.240914510841 -0.0858324591751 0)
(-0.251079995198 -0.0793469951021 0)
(-0.260514417802 -0.0730560500238 0)
(-0.269254239149 -0.0670252022856 0)
(-0.277330551232 -0.0612897704384 0)
(-0.284770107923 -0.0558636609384 0)
(-0.291596412028 -0.0507462230475 0)
(-0.297830635355 -0.0459273576554 0)
(-0.303492290524 -0.0413912056876 0)
(-0.308599664516 -0.0371187415181 0)
(-0.313170062942 -0.0330895547465 0)
(-0.317219929036 -0.0292830465181 0)
(-0.320764892945 -0.025679210233 0)
(-0.323819797712 -0.0222591200255 0)
(-0.326398724567 -0.0190052133404 0)
(-0.328514996107 -0.0159014333992 0)
(-0.330181153413 -0.0129332902669 0)
(-0.331409061368 -0.0100878681122 0)
(-0.332210619597 -0.00735366126481 0)
(-0.332598535083 -0.0047200550626 0)
(-0.332583559784 -0.00217726532261 0)
(-0.332166224663 0.000280684683685 0)
(-0.331380470085 0.00265093930718 0)
(-0.33022138113 0.00493832971492 0)
(-0.328700980908 0.00715489388285 0)
(-0.326829607778 0.00930651932454 0)
(-0.324616311822 0.011399574436 0)
(-0.3220695931 0.0134403527479 0)
(-0.31919740685 0.015435152969 0)
(-0.316007079502 0.0173903878499 0)
(-0.312505172791 0.0193126850832 0)
(-0.308697322711 0.0212089493736 0)
(-0.30458806397 0.0230863699465 0)
(-0.300180651289 0.02495236214 0)
(-0.295476893104 0.026814433616 0)
(-0.290477018477 0.0286799684339 0)
(-0.285179602389 0.030555927129 0)
(-0.279581577535 0.0324484684992 0)
(-0.273678361248 0.0343625082124 0)
(-0.267464123405 0.0363012410305 0)
(-0.260932213118 0.038265666757 0)
(-0.254075748973 0.040254169909 0)
(-0.246888361261 0.0422622102614 0)
(-0.239365052903 0.0442821862628 0)
(-0.231503140436 0.0463035131909 0)
(-0.223303219414 0.0483129708288 0)
(-0.214770061181 0.0502953794424 0)
(-0.205913394739 0.0522345451806 0)
(-0.196748438971 0.054114609926 0)
(-0.187296188115 0.0559215543728 0)
(-0.177583311583 0.0576451165826 0)
(-0.167641712425 0.0592806569696 0)
(-0.157507356152 0.0608316636262 0)
(-0.147219939168 0.0623106139694 0)
(-0.136819770858 0.0637436523991 0)
(-0.126346359372 0.0651695051694 0)
(-0.115836598543 0.0666414373927 0)
(-0.105321918748 0.0682313147078 0)
(-0.0948240280843 0.0700258543951 0)
(-0.0843525894038 0.0721247862942 0)
(-0.0739033536097 0.0746405484292 0)
(-0.0634452096576 0.0776870577339 0)
(-0.0529148791654 0.0813481574204 0)
(-0.0422722683644 0.0855815980351 0)
(-0.030888648018 0.0901881994002 0)
(-0.0197329059213 0.0936947353417 0)
(-0.00648089738014 0.0911211669528 0)
(-0.0198108386378 -0.0716561326393 0)
(-0.0409658815836 -0.0939771862917 0)
(-0.0661611370062 -0.110484810884 0)
(-0.0879458847064 -0.122964465194 0)
(-0.107844113107 -0.131023442819 0)
(-0.125947882024 -0.13508937709 0)
(-0.142536204438 -0.135716380246 0)
(-0.157819887353 -0.133629349032 0)
(-0.171944449922 -0.129507646295 0)
(-0.185033254027 -0.123947016578 0)
(-0.197191180335 -0.117446500467 1.11930475887e-28)
(-0.208507463299 -0.110403281373 -1.10429938334e-28)
(-0.219056339975 -0.103119567039 0)
(-0.22889721275 -0.0958147519547 0)
(-0.23807610687 -0.0886402893149 0)
(-0.246627960683 -0.0816946151569 0)
(-0.254579339051 -0.0750365480686 0)
(-0.261951023568 -0.0686963992303 0)
(-0.268760142804 -0.0626846580681 0)
(-0.275021713044 -0.0569984933864 0)
(-0.28074961938 -0.0516264702059 0)
(-0.285957151474 -0.0465519005903 0)
(-0.290657232732 -0.0417551914939 0)
(-0.294862466009 -0.037215473948 0)
(-0.298585092418 -0.0329117219348 0)
(-0.301836928268 -0.0288235071459 0)
(-0.304629321875 -0.0249314913638 0)
(-0.306973140455 -0.021217729672 0)
(-0.308878749469 -0.017665841278 0)
(-0.310355967945 -0.0142610834358 0)
(-0.311414234683 -0.0109903319716 0)
(-0.312063519406 -0.0078419389428 8.12180585277e-29)
(-0.31231497073 -0.00480554949394 -8.19236091552e-29)
(-0.312176581575 -0.00187242968116 0)
(-0.311643632381 0.000963086362571 0)
(-0.310756708754 0.00370192481896 0)
(-0.309504288517 0.00634953755495 0)
(-0.30790004901 0.00891563148649 0)
(-0.305952862877 0.0114076320841 0)
(-0.303671721842 0.0138324258181 0)
(-0.30106543849 0.0161966955036 0)
(-0.29814257451 0.0185071855001 0)
(-0.294911290706 0.0207708918746 0)
(-0.291379159597 0.0229952018993 0)
(-0.287552947461 0.0251879789339 0)
(-0.283438372833 0.0273575818034 0)
(-0.279039852032 0.0295128045184 0)
(-0.274360248856 0.0316627214513 0)
(-0.269400653207 0.0338164253189 0)
(-0.264160220875 0.0359826513419 0)
(-0.258636111539 0.0381692907609 0)
(-0.252823564646 0.0403828097172 0)
(-0.246716152239 0.0426276040247 0)
(-0.240306237163 0.0449053424366 0)
(-0.233585648633 0.0472143658485 0)
(-0.226546568807 0.0495492119561 0)
(-0.219182581069 0.0519003665047 0)
(-0.211489837171 0.0542542754318 0)
(-0.203468310643 0.05659366637 0)
(-0.195122941995 0.0588983901994 0)
(-0.186464742239 0.0611464200737 0)
(-0.177511514241 0.0633156478233 0)
(-0.168288431041 0.0653854837196 0)
(-0.158827960044 0.067339510994 0)
(-0.149169993558 0.0691671092229 0)
(-0.139359346767 0.0708680608872 0)
(-0.129448300086 0.0724502025574 0)
(-0.11948974806 0.0739400480369 0)
(-0.109538661292 0.0753777302454 0)
(-0.0996470925081 0.0768180576698 0)
(-0.0898648503099 0.0783408748507 0)
(-0.0802328748103 0.0800440909848 0)
(-0.0707762344464 0.0820389150407 0)
(-0.0615113882756 0.0844559211935 0)
(-0.0524270556671 0.0874369379891 0)
(-0.0434568688195 0.0911131463276 0)
(-0.034685705761 0.0954947431106 0)
(-0.0251721550986 0.100493242821 0)
(-0.0166426419609 0.104849342596 0)
(-0.0050232446566 0.103154875197 0)
(-0.0179861874981 -0.0997006921153 0)
(-0.0390799685208 -0.119543430173 0)
(-0.0639061471798 -0.133495850503 0)
(-0.0849887842964 -0.143655166427 0)
(-0.104189804682 -0.149669129621 0)
(-0.121437645748 -0.151970982378 0)
(-0.137045558353 -0.151101277319 0)
(-0.151250955885 -0.147729886481 0)
(-0.164254320218 -0.142494919723 0)
(-0.176226849827 -0.135962621392 0)
(-0.187308782164 -0.128606025254 0)
(-0.197611270927 -0.120798803253 0)
(-0.20721888703 -0.112821861888 0)
(-0.216193349351 -0.10487632444 0)
(-0.224578288653 -0.0970990823723 0)
(-0.232404109367 -0.0895778887168 0)
(-0.239692323126 -0.0823643903367 0)
(-0.24645895102 -0.0754845287212 0)
(-0.252716910877 -0.0689464105694 0)
(-0.258477509654 -0.0627460654929 0)
(-0.263751257353 -0.0568715826074 0)
(-0.268548229792 -0.0513060646714 0)
(-0.272878171407 -0.046029740495 0)
(-0.276750475585 -0.0410214802701 0)
(-0.280174131711 -0.036259881566 0)
(-0.283157688983 -0.0317240384982 0)
(-0.285709259906 -0.0273940710554 0)
(-0.287836555751 -0.0232514761453 0)
(-0.289546914648 -0.0192793543944 0)
(-0.29084731313 -0.0154625261106 0)
(-0.291744615188 -0.0117874949805 0)
(-0.292246479168 -0.00824230267189 0)
(-0.292361686688 -0.00481670718569 0)
(-0.292095186224 -0.00150307415857 0)
(-0.291438960496 0.0017033764061 0)
(-0.290439689922 0.00480441498793 0)
(-0.28907804459 0.00780634681535 0)
(-0.28736917324 0.0107178798609 0)
(-0.285321296522 0.0135462643413 0)
(-0.282943602486 0.0162983024801 0)
(-0.280245503484 0.0189807223798 0)
(-0.277236499179 0.0216004727185 0)
(-0.273925967135 0.0241649482851 0)
(-0.270322923505 0.0266821629994 0)
(-0.266435745564 0.0291608655062 9.60450912143e-29)
(-0.262271856799 0.0316105825002 -9.6599871555e-29)
(-0.257837382482 0.0340415688338 0)
(-0.253136793515 0.0364646409764 0)
(-0.248172568437 0.0388908722724 0)
(-0.242944914632 0.0413311348639 0)
(-0.237451598785 0.0437954867751 0)
(-0.231687940201 0.0462924206511 0)
(-0.225647026021 0.0488280049171 0)
(-0.219320196393 0.0514049852992 0)
(-0.212697811458 0.0540219494212 0)
(-0.205770318955 0.0566726110776 0)
(-0.198529533878 0.0593454079871 0)
(-0.190970041942 0.0620234410139 0)
(-0.183090883729 0.0646846139781 0)
(-0.174896885104 0.0673028839246 0)
(-0.166400307079 0.0698489593498 0)
(-0.15762157187 0.0722930937015 0)
(-0.148590539328 0.0746061527132 0)
(-0.13934564418 0.0767641507482 0)
(-0.129936638566 0.0787475461977 0)
(-0.120416227679 0.0805522751091 0)
(-0.110853410642 0.0821770617696 0)
(-0.101311716087 0.0836481249801 0)
(-0.0918676705332 0.0850071063307 0)
(-0.0825869521873 0.0863070065816 0)
(-0.0735386634539 0.0876343202783 0)
(-0.0647902362521 0.0891012461556 0)
(-0.0563790640508 0.0908303251605 0)
(-0.0483421527698 0.0929693340926 0)
(-0.0406922038851 0.0956879682582 0)
(-0.0333357990502 0.0991616315576 0)
(-0.0265392088832 0.103472204017 0)
(-0.0189423414202 0.108589440147 0)
(-0.0132127038181 0.113602444014 0)
(-0.00348648252171 0.112920130866 0)
(-0.0163586723762 -0.125999041221 0)
(-0.0367764184366 -0.144008981616 0)
(-0.0606202835214 -0.155660414705 0)
(-0.0806703300399 -0.163540681322 0)
(-0.0989832892669 -0.167474447448 0)
(-0.115318591443 -0.167954099754 0)
(-0.130007157338 -0.165528354886 0)
(-0.143282036578 -0.160838850553 0)
(-0.155363846666 -0.154489570213 0)
(-0.166441495441 -0.147012043524 0)
(-0.176668314052 -0.138844517671 0)
(-0.186162699167 -0.130328460647 0)
(-0.195011771508 -0.12171695544 0)
(-0.20327707362 -0.113188907476 0)
(-0.211000945051 -0.104864814465 0)
(-0.218212376638 -0.096821252293 0)
(-0.224931720449 -0.0891028197639 0)
(-0.231174062091 -0.0817313339517 0)
(-0.236951391989 -0.0747126310706 0)
(-0.242273858604 -0.0680415103808 0)
(-0.247150408401 -0.0617053292388 0)
(-0.25158906927 -0.0556866455275 0)
(-0.255597061023 -0.0499651845377 0)
(-0.259180847621 -0.0445193133868 0)
(-0.262346194292 -0.0393271419408 0)
(-0.265098257495 -0.0343673283126 0)
(-0.267441708936 -0.0296196429544 0)
(-0.269380865366 -0.0250653442151 0)
(-0.270919798263 -0.0206874262368 0)
(-0.272062459508 -0.0164707455625 0)
(-0.272813079954 -0.0124019128845 0)
(-0.273176916965 -0.00846892940095 0)
(-0.27315984801 -0.0046614360098 9.18538940894e-29)
(-0.272763256355 -0.000972791791483 -9.32095642114e-29)
(-0.271977115023 0.0025991977197 0)
(-0.270853473515 0.00605660271605 0)
(-0.269365938935 0.0094081948812 0)
(-0.267530775491 0.0126613654178 0)
(-0.26535586707 0.0158225356756 0)
(-0.262850798972 0.0188978940281 0)
(-0.260025799852 0.0218937830783 0)
(-0.256891551197 0.0248169946149 0)
(-0.253458937658 0.0276750172671 0)
(-0.24973877145 0.0304762452342 0)
(-0.245741465899 0.0332301370773 0)
(-0.241476649424 0.0359473011567 0)
(-0.23695272228 0.0386394760592 0)
(-0.232176373868 0.0413193699047 0)
(-0.227152094456 0.0440003225209 0)
(-0.221881734862 0.0466957631064 0)
(-0.216364182825 0.0494184501112 0)
(-0.210595225215 0.052179515024 0)
(-0.204567684962 0.0549873335437 0)
(-0.198271926836 0.0578462922094 0)
(-0.191696708095 0.0607556696973 0)
(-0.18483047096 0.0637085610932 0)
(-0.177662947732 0.0666912459999 0)
(-0.170186665728 0.0696832072959 0)
(-0.162399458314 0.0726565210933 0)
(-0.154305571943 0.0755784346272 0)
(-0.145918609829 0.0784105012509 0)
(-0.13726124847 0.0811141188115 0)
(-0.12836914078 0.0836488427951 0)
(-0.119285309251 0.0859824440355 0)
(-0.110073899437 0.0880814365299 0)
(-0.100789273301 0.089939726941 0)
(-0.0915289940459 0.0915404540185 0)
(-0.0823546637753 0.0929078505291 0)
(-0.0733801005585 0.0940866227661 0)
(-0.0646816215221 0.0951265053595 0)
(-0.0563429149273 0.0961151764297 0)
(-0.0484738027389 0.0971835376737 0)
(-0.0411209338289 0.0984676839051 0)
(-0.0343421010731 0.10013055917 0)
(-0.0281830367573 0.102373254077 0)
(-0.022505931142 0.105406505737 0)
(-0.0177845151988 0.109414321588 0)
(-0.0122130121672 0.114363737211 0)
(-0.00941821580426 0.119769972038 0)
(-0.00185569734089 0.120184296547 0)
(-0.0148304320823 -0.150432556894 0)
(-0.0342316604234 -0.167053434011 0)
(-0.0567915978229 -0.176646062377 0)
(-0.0756451093864 -0.182391855826 0)
(-0.092960403691 -0.184329763028 0)
(-0.108351120202 -0.183033370471 0)
(-0.122161541223 -0.179077674668 0)
(-0.134602246734 -0.173094551859 0)
(-0.145893112163 -0.165661066668 0)
(-0.156221524131 -0.157274204272 0)
(-0.165739632888 -0.148335174646 0)
(-0.174564035442 -0.139150890268 0)
(-0.182780063382 -0.129945260776 0)
(-0.190448151423 -0.120874653772 0)
(-0.197610479244 -0.112043459391 0)
(-0.204296679351 -0.103517492945 0)
(-0.210528134177 -0.0953345321409 0)
(-0.216320871164 -0.0875121831125 0)
(-0.221687335608 -0.0800536348971 0)
(-0.226637391834 -0.0729518878488 0)
(-0.231178864346 -0.0661929213443 0)
(-0.235317849264 -0.0597581195103 0)
(-0.239058937322 -0.0536261549693 0)
(-0.242405427083 -0.0477744525156 0)
(-0.245359559435 -0.0421803098091 0)
(-0.247922782458 -0.0368217294551 0)
(-0.250096028496 -0.0316780021885 0)
(-0.25187994576 -0.0267300904509 0)
(-0.253275110059 -0.021960877691 0)
(-0.254282275319 -0.0173552973381 0)
(-0.254903122855 -0.0129001680673 0)
(-0.25514083397 -0.0085835296318 0)
(-0.254997817448 -0.00439474940152 0)
(-0.254469467227 -0.000328574844974 0)
(-0.253548942569 0.00361062432495 0)
(-0.252288733536 0.0074256062749 0)
(-0.250660047476 0.0111309089054 0)
(-0.248678635292 0.0147301724914 0)
(-0.246352390728 0.0182282024378 0)
(-0.243691393692 0.0216301049036 0)
(-0.240706726584 0.0249414767476 0)
(-0.237410266505 0.028168624162 0)
(-0.233814446618 0.0313188168739 0)
(-0.229931984543 0.0344005424385 0)
(-0.225775537699 0.0374237315748 0)
(-0.221357264973 0.0403999172526 0)
(-0.216688289453 0.0433422809999 0)
(-0.211778075018 0.0462655311595 0)
(-0.206633755468 0.0491855567597 0)
(-0.201259480037 0.0521188118004 0)
(-0.19565587662 0.055081386848 0)
(-0.189819716243 0.0580878120388 0)
(-0.183743883746 0.0611496027829 0)
(-0.177417919782 0.0642735172288 0)
(-0.170828908807 0.0674601562073 0)
(-0.16396301764 0.070702353152 0)
(-0.156807771615 0.0739840449405 0)
(-0.149352943808 0.0772811991802 0)
(-0.141595238293 0.0805584984645 0)
(-0.133537361541 0.0837762366105 0)
(-0.125195158154 0.0868839771194 0)
(-0.116591736888 0.0898338192664 0)
(-0.107772081264 0.0925695076709 0)
(-0.0987774490195 0.0950517407279 0)
(-0.0896993907488 0.0972248138296 0)
(-0.0805722049269 0.0990846707648 0)
(-0.0715563237267 0.100592583553 0)