/*--------------------------------*- C++ -*----------------------------------*\
| =========                 |                                                 |
| \\      /  F ield         | OpenFOAM: The Open Source CFD Toolbox           |
|  \\    /   O peration     | Version:  v1806                                 |
|   \\  /    A nd           | Web:      www.OpenFOAM.com                      |
|    \\/     M anipulation  |                                                 |
\*---------------------------------------------------------------------------*/
FoamFile
{
    version     2.0;
    format      ascii;
    class       volVectorField;
    location    "500";
    object      U;
}
// * * * * * * * * * * * * * * * * * * * * * * * * * * * * * * * * * * * * * //

dimensions      [0 1 -1 0 0 0 0];


internalField   nonuniform List<vector> 
6400
(
(0.00605905118623 0.00780587195933 0)
(0.0137158602069 0.00496513411911 0)
(0.0182949020956 0.00412942163394 0)
(0.0176390323231 0.00434506177891 0)
(0.0144454657031 -0.000586247180043 0)
(-0.0124721651585 -0.0137240883026 0)
(-0.0363237707079 -0.0143714264821 0)
(-0.0600608048539 -0.014292622204 0)
(-0.0842053863248 -0.0139664531551 0)
(-0.108047819403 -0.0134661491068 0)
(-0.131207680902 -0.0128407341469 0)
(-0.153418652992 -0.0121353321648 0)
(-0.1745025341 -0.0113863471772 0)
(-0.194350109028 -0.0106220071841 0)
(-0.212906211477 -0.00986340493338 0)
(-0.230156991612 -0.00912563422641 0)
(-0.246119098302 -0.00841888528787 0)
(-0.260830676955 -0.00774945319447 0)
(-0.274344084466 -0.00712063266828 0)
(-0.286720170778 -0.00653348471943 0)
(-0.298023933022 -0.00598747065738 0)
(-0.308321325001 -0.00548095948756 0)
(-0.31767700521 -0.00501162016461 0)
(-0.326152822136 -0.00457671579673 0)
(-0.333806861724 -0.00417331610663 0)
(-0.340692912406 -0.00379844609795 0)
(-0.346860225252 -0.00344918365088 0)
(-0.352353487907 -0.00312272101377 0)
(-0.357212932762 -0.00281639498605 0)
(-0.361474528105 -0.00252769585222 0)
(-0.365170213514 -0.00225425828572 0)
(-0.368328168015 -0.00199384142407 0)
(-0.370973097509 -0.00174428350997 0)
(-0.373126391756 -0.00150338650531 0)
(-0.37480612092 -0.00126865228606 0)
(-0.376026564322 -0.00103689820151 0)
(-0.376797611055 -0.000804291638046 0)
(-0.377126144036 -0.00056811171814 0)
(-0.377021450334 -0.000327632655546 0)
(-0.376479111847 -8.59152263786e-05 0)
(-0.375504864247 0.000153231184294 0)
(-0.37410704942 0.000388527645389 0)
(-0.372292993643 0.000620227362123 0)
(-0.370069035324 0.000849028753838 0)
(-0.367440145031 0.00107576733814 0)
(-0.364409850922 0.0013013048804 0)
(-0.360980243628 0.00152649063675 0)
(-0.357152021564 0.00175213743386 0)
(-0.352924570786 0.00197900342812 0)
(-0.34829608588 0.00220776608219 0)
(-0.343263742515 0.00243899590865 0)
(-0.337823929966 0.00267312302421 0)
(-0.33197254849 0.00291040818006 0)
(-0.325705369265 0.00315091336285 0)
(-0.319018447253 0.00339448581549 0)
(-0.311908567602 0.0036407514489 0)
(-0.304373697091 0.00388913240553 0)
(-0.296413402194 0.00413888431819 0)
(-0.288029187503 0.00438916731211 0)
(-0.279224701542 0.00463914460871 0)
(-0.270005752707 0.00488812069278 0)
(-0.260380076505 0.00513571052664 0)
(-0.250356797017 0.00538204925911 0)
(-0.239945528751 0.00562803130716 0)
(-0.2291550688 0.00587558649707 0)
(-0.217991636798 0.00612797918931 0)
(-0.206456636959 0.00639013525034 0)
(-0.194543931844 0.00666897123479 0)
(-0.18223662646 0.00697371452345 0)
(-0.169503379154 0.00731614927502 0)
(-0.156294345074 0.0077106676537 0)
(-0.142537293322 0.00817398806394 0)
(-0.128135573863 0.0087240095796 0)
(-0.112969657584 0.00937616029843 0)
(-0.0968977797919 0.0101350516242 0)
(-0.0797493804502 0.0109827830354 0)
(-0.0613737292077 0.0118678588874 0)
(-0.0420106361414 0.012636117314 0)
(-0.0232426198556 0.0125642255177 0)
(-0.00844608090032 0.00849335283248 0)
(0.00368644958214 0.0173586025838 0)
(0.00900287648081 0.0112275420553 0)
(0.00386143756731 0.000426823243076 0)
(-0.0226566804497 -0.0179443087417 0)
(-0.0421585383016 -0.0267955111379 0)
(-0.0641376938445 -0.0326212516983 0)
(-0.0873745892903 -0.0350144440259 0)
(-0.111307060307 -0.0358390115936 0)
(-0.135492213368 -0.0357365165723 0)
(-0.159246190208 -0.0349778184053 0)
(-0.18217792209 -0.0337449516428 0)
(-0.20401941632 -0.0321807224813 0)
(-0.224600591221 -0.0303999915216 0)
(-0.243824796017 -0.0284945362565 0)
(-0.261651160716 -0.0265360058231 0)
(-0.278080221757 -0.0245785619657 0)
(-0.293142148411 -0.0226615086246 0)
(-0.306887227856 -0.0208118866335 0)
(-0.319378363581 -0.0190469266358 0)
(-0.330685336082 -0.017376260527 0)
(-0.340880554841 -0.0158038297292 0)
(-0.350036030837 -0.0143294674226 0)
(-0.358221312957 -0.0129501652456 0)
(-0.365502161504 -0.0116610549259 0)
(-0.371939773206 -0.0104561468823 0)
(-0.377590395456 -0.00932886903145 0)
(-0.382505222729 -0.00827244977357 0)
(-0.386730475723 -0.00728017949843 0)
(-0.390307604281 -0.006345578565 0)
(-0.39327355416 -0.00546249190149 0)
(-0.395661049418 -0.00462513847623 0)
(-0.397498961606 -0.00382813666684 0)
(-0.39881265095 -0.00306645899857 0)
(-0.399624431491 -0.00233516855656 0)
(-0.399953784043 -0.00162885728352 0)
(-0.399816659888 -0.000941484196914 0)
(-0.399222883737 -0.000268267589838 0)
(-0.398186599873 0.000389942895301 0)
(-0.39673664687 0.00103165819616 0)
(-0.39489763558 0.00166003421061 0)
(-0.39268355883 0.00227583060663 0)
(-0.390101312118 0.0028801645088 0)
(-0.387155634505 0.00347482692981 0)
(-0.383849536714 0.00406181168038 0)
(-0.380184811748 0.00464316150127 0)
(-0.376162163093 0.0052209040423 0)
(-0.371781242429 0.00579701581974 0)
(-0.367040669692 0.00637338542795 0)
(-0.361938071038 0.00695176305307 0)
(-0.35647015481 0.00753369350069 0)
(-0.350632841028 0.00812043335228 0)
(-0.344421454456 0.00871285804505 0)
(-0.337830987858 0.00931136617041 0)
(-0.330856434019 0.009915792303 0)
(-0.323493179095 0.0105253403266 0)
(-0.315737438707 0.0111385517211 0)
(-0.307586710936 0.0117533222915 0)
(-0.299040208479 0.0123669810478 0)
(-0.2900992267 0.0129764418928 0)
(-0.280767395163 0.013578436864 0)
(-0.271050759671 0.0141698350493 0)
(-0.260957637983 0.0147480485427 0)
(-0.250498198792 0.015311521903 0)
(-0.23968371539 0.0158602993889 0)
(-0.228525456545 0.0163966609823 0)
(-0.217033180908 0.016925814911 0)
(-0.205213220299 0.0174566317447 0)
(-0.193066161883 0.0180023724524 0)
(-0.180584139273 0.0185813762685 0)
(-0.167747724149 0.0192176043735 0)
(-0.154522580544 0.0199407012483 0)
(-0.140856297997 0.0207853053509 0)
(-0.126676195062 0.0217886526579 0)
(-0.111889078184 0.0229831653806 0)
(-0.0963824089556 0.0243793103528 0)
(-0.0800270916162 0.0259387715969 0)
(-0.0627046136677 0.0275390768978 0)
(-0.0444561219195 0.0288417294955 0)
(-0.0260452152881 0.0286528129058 0)
(-0.010552927314 0.023121369419 0)
(-0.000980636100796 0.0176398879848 0)
(-0.0144646211419 -0.00466234549786 0)
(-0.0331005622676 -0.0246639123012 -8.66559923283e-29)
(-0.0535353837781 -0.0380471709087 5.42671507006e-29)
(-0.0746652228991 -0.0480071236646 4.08504430662e-29)
(-0.0962981680575 -0.0550454913203 -3.32244525357e-29)
(-0.118294802463 -0.058585164896 2.82130099894e-29)
(-0.140485958605 -0.0597758041879 -2.50047533856e-29)
(-0.162447467352 -0.0593958814952 0)
(-0.183730048001 -0.0578991691688 0)
(-0.204036245942 -0.0556160811851 0)
(-0.223169017459 -0.0528009863015 0)
(-0.241017407766 -0.0496536982973 0)
(-0.257534718817 -0.0463301167828 0)
(-0.272721101749 -0.0429491723813 0)
(-0.286609269283 -0.039598616413 0)
(-0.299253177835 -0.0363403692519 0)
(-0.310719335937 -0.0332155115579 0)
(-0.321080370967 -0.0302488138165 0)
(-0.33041046127 -0.027452690767 0)
(-0.338782245252 -0.0248305213285 0)
(-0.346264852765 -0.0223793342355 0)
(-0.352922755561 -0.0200919083947 0)
(-0.358815192109 -0.0179583640652 0)
(-0.363995984045 -0.0159673324614 0)
(-0.368513597612 -0.0141067885271 0)
(-0.372411362567 -0.012364629982 0)
(-0.375727780727 -0.0107290607961 0)
(-0.378496878865 -0.00918882943604 0)
(-0.380748560589 -0.00773336171534 -7.20794432609e-29)
(-0.382508928062 -0.00635284435991 7.20037767239e-29)
(-0.383800681988 -0.00503828016831 0)
(-0.384643647155 -0.00378142984899 0)
(-0.3850554992 -0.00257438229003 0)
(-0.385051609323 -0.00140896617685 0)
(-0.384642048874 -0.000278304060001 0)
(-0.383826987039 0.000817690408327 0)
(-0.382656765201 0.00187580218397 0)
(-0.381116640924 0.00290167800168 0)
(-0.379214991337 0.0039022295336 0)
(-0.376955916173 0.00488327093069 0)
(-0.374343671499 0.00584909002974 0)
(-0.371381706801 0.00680308866109 0)
(-0.368072507485 0.00774839031718 0)
(-0.364417591125 0.00868801433564 0)
(-0.360417497811 0.00962493287259 0)
(-0.356071771082 0.0105620663504 0)
(-0.351378944165 0.0115022407933 0)
(-0.346336550453 0.0124481049215 0)
(-0.340941176938 0.0134020162369 0)
(-0.335188577045 0.0143658951039 0)
(-0.329073856619 0.015341062735 0)
(-0.322591741587 0.0163280700864 0)
(-0.315736929651 0.0173265422336 0)
(-0.308504519228 0.0183350528021 0)
(-0.300890499407 0.0193510587028 0)
(-0.292892273359 0.0203709121242 0)
(-0.284509177813 0.0213899787132 0)
(-0.275742951362 0.0224028734163 0)
(-0.266598098294 0.0234038335366 0)
(-0.257082090698 0.0243872276571 0)
(-0.247205352186 0.02534820574 0)
(-0.236980970884 0.0262834735066 0)
(-0.226424098673 0.0271921804671 0)
(-0.215551001781 0.0280768962456 0)
(-0.204377743312 0.0289446434836 0)
(-0.192918474329 0.0298079720631 0)
(-0.181183375413 0.0306859577466 0)
(-0.169176288602 0.0316050648142 0)
(-0.156891906573 0.032599877267 0)
(-0.144312757858 0.0337129443004 0)
(-0.131406422842 0.0349933949746 0)
(-0.118122694304 0.0364935792617 0)
(-0.104390647659 0.0382597049257 0)
(-0.0901175492658 0.040310481821 0)
(-0.0751930534294 0.0425976630558 0)
(-0.0594940317132 0.044931995093 0)
(-0.0428970197521 0.0467874509917 0)
(-0.0256342640725 0.0466652708925 0)
(-0.010121434525 0.0403161864326 0)
(-0.0105905938586 0.00474814556542 0)
(-0.0317180260569 -0.0251245410952 0)
(-0.051607012471 -0.0440941526109 0)
(-0.0727563115555 -0.0587312249124 0)
(-0.0938370875042 -0.0693029460004 0)
(-0.114726095936 -0.0763776167698 0)
(-0.135303431233 -0.0799377113808 0)
(-0.155446051233 -0.0808255639386 0)
(-0.174915564611 -0.0797687159725 0)
(-0.193487583159 -0.0773094572933 0)
(-0.211007073738 -0.0738766510893 0)
(-0.227380861629 -0.0698078137183 0)
(-0.242572019034 -0.0653670804398 0)
(-0.256585533695 -0.0607571483316 0)
(-0.269455196362 -0.0561289565695 0)
(-0.281232552736 -0.0515904407747 0)
(-0.291978495974 -0.0472146903959 0)
(-0.301757318429 -0.0430474090563 0)
(-0.310632804473 -0.0391134855739 0)
(-0.318665874789 -0.0354225448411 0)
(-0.325913326972 -0.031973451091 0)
(-0.332427297545 -0.0287578270079 0)
(-0.338255162623 -0.025762710553 0)
(-0.343439693962 -0.0229724968188 0)
(-0.348019322408 -0.0203703130355 0)
(-0.35202845974 -0.0179389611797 0)
(-0.355497821208 -0.0156615415752 0)
(-0.358454743711 -0.0135218460541 0)
(-0.360923479912 -0.0115045847978 0)
(-0.362925414627 -0.00959550697722 0)
(-0.364479382335 -0.00778146022528 0)
(-0.36560180316 -0.00605040139645 0)
(-0.366307481399 -0.00439128696654 0)
(-0.366610417952 -0.00279362699225 0)
(-0.366521865786 -0.00124721120122 0)
(-0.366043092256 0.00025550170681 0)
(-0.36520436188 0.00171305332626 0)
(-0.364002057109 0.00312854324401 0)
(-0.36244311359 0.00451066277152 0)
(-0.360533847932 0.00586381690608 0)
(-0.358279046692 0.00719291999739 0)
(-0.355682808689 0.00850254744593 0)
(-0.352748427045 0.00979695355433 0)
(-0.349478363083 0.0110802160664 0)
(-0.345874216708 0.0123563418747 0)
(-0.341936674784 0.0136293191878 8.50471615372e-29)
(-0.337665448097 0.014903114266 -8.57638242535e-29)
(-0.333059214351 0.0161816114807 0)
(-0.328115587864 0.0174684976304 0)
(-0.3228311371 0.0187670927404 0)
(-0.317201470606 0.0200801355619 0)
(-0.311221409108 0.021409536136 0)
(-0.30488525724 0.0227561155712 0)
(-0.2981871809 0.0241193579839 0)
(-0.291121686868 0.0254972066906 0)
(-0.283684189162 0.026885938426 0)
(-0.275871634356 0.0282801516061 0)
(-0.267683145107 0.0296729008213 1.23023820053e-28)
(-0.259120630781 0.0310560051539 -1.2603397694e-28)
(-0.250189305512 0.0324205487751 0)
(-0.240898051323 0.0337575805977 0)
(-0.23125956418 0.0350590093049 0)
(-0.221290226824 0.0363186791918 0)
(-0.211009669539 0.0375335880423 0)
(-0.200439978095 0.0387052452025 0)
(-0.18960456221 0.0398410520479 0)
(-0.178526619575 0.0409558009669 0)
(-0.167227246311 0.0420730360424 0)
(-0.155723450383 0.0432260781981 0)
(-0.144025495486 0.0444593804338 0)
(-0.132133876163 0.045828483518 0)
(-0.120036938389 0.0473981801911 0)
(-0.107707833731 0.049239757891 0)
(-0.0950993817187 0.051422282433 0)
(-0.0821393595321 0.0539909075304 0)
(-0.0687304390895 0.0569231371136 0)
(-0.0547340399138 0.0600350057887 0)
(-0.0399033838583 0.062754290285 0)
(-0.0241798826294 0.0634137776224 0)
(-0.00925072736076 0.0570646610673 0)
(-0.0205945440724 -0.0217817984117 0)
(-0.0388554757479 -0.0464682076844 0)
(-0.0609825237308 -0.0653048720284 0)
(-0.0827359458156 -0.0798479464109 0)
(-0.103626996198 -0.090080393753 0)
(-0.123639485703 -0.0964668611258 0)
(-0.142764160513 -0.0993708229509 0)
(-0.160994815069 -0.099513287518 0)
(-0.178259994306 -0.0975662996819 0)
(-0.194498497783 -0.0940995036168 0)
(-0.209678633875 -0.0895883062907 0)
(-0.22379806051 -0.0844158550376 0)
(-0.236880209351 -0.0788822983628 0)
(-0.248965817971 -0.0732149278575 0)
(-0.260105157488 -0.0675791348035 0)
(-0.270351890289 -0.0620895051464 0)
(-0.279759006367 -0.0568204097251 0)
(-0.288376557061 -0.0518155365478 0)
(-0.296250693667 -0.0470960167641 0)
(-0.303423513155 -0.0426670234442 0)
(-0.309933317504 -0.0385229065086 0)
(-0.315815022303 -0.0346510418069 0)
(-0.321100563357 -0.0310346227436 0)
(-0.32581923923 -0.0276546236011 0)
(-0.329997962743 -0.0244911414327 0)
(-0.333661440257 -0.0215242882795 0)
(-0.336832296224 -0.0187347623309 0)
(-0.339531168554 -0.0161041955522 0)
(-0.341776783954 -0.0136153552838 0)
(-0.343585993044 -0.0112522641691 0)
(-0.344973832443 -0.00900025969542 -7.79074715291e-29)
(-0.345953690645 -0.00684596297166 7.81615337176e-29)
(-0.346538081698 -0.00477710860543 0)
(-0.346739342763 -0.00278237395155 0)
(-0.346566258507 -0.000851898307487 0)
(-0.3460149277 0.00102102509346 0)
(-0.345123760909 0.00283868935629 0)
(-0.34388100902 0.00460725285214 0)
(-0.342296052179 0.00633548433795 0)
(-0.340373465204 0.00802988892986 0)
(-0.338117480907 0.0096962909537 0)
(-0.335531839865 0.0113399531419 0)
(-0.332619749535 0.0129658052264 0)
(-0.329383804273 0.0145786406094 0)
(-0.325825887863 0.0161832530193 0)
(-0.32194705646 0.0177845068614 0)
(-0.317747411604 0.0193873353773 0)
(-0.313225980436 0.0209966634471 0)
(-0.308380625162 0.0226172520724 0)
(-0.303208006755 0.024253467738 0)
(-0.297703628452 0.0259089842539 0)
(-0.291861983078 0.0275864345416 0)
(-0.285676823735 0.0292870364413 0)
(-0.27914157013 0.0310102277192 0)
(-0.272249850927 0.0327533522244 0)
(-0.264996168169 0.0345114460266 0)
(-0.25737665419 0.036277171131 0)
(-0.249389875319 0.0380409446402 0)
(-0.241037624165 0.0397912974161 0)
(-0.23232562953 0.0415154924044 0)
(-0.223264112114 0.0432004044988 0)
(-0.213868116989 0.0448336534686 0)
(-0.204157546008 0.0464049865317 0)
(-0.19415688387 0.0479077851902 0)
(-0.183894506219 0.0493408423523 0)
(-0.173401719426 0.0507099760996 0)
(-0.162711349489 0.0520299596056 0)
(-0.151855752782 0.0533263509126 0)
(-0.14086541718 0.0546361493859 0)
(-0.129766314962 0.0560103659039 0)
(-0.118576321495 0.0575142787817 0)
(-0.10730319769 0.0592242695203 0)
(-0.0959424191044 0.0612271778655 0)
(-0.0844711388446 0.0636147319813 0)
(-0.0728388750507 0.0664627076543 0)
(-0.0609664212621 0.0697901113879 0)
(-0.0487190626311 0.0734654689746 0)
(-0.0357723371219 0.0769847213784 0)
(-0.0219712452266 0.0786405882906 0)
(-0.00815845615563 0.0726227779426 0)
(-0.0200565449386 -0.046528123753 0)
(-0.0404383005178 -0.0703293616808 0)
(-0.0644295379977 -0.0878098520594 0)
(-0.0864136125998 -0.10115916695 0)
(-0.106925519003 -0.110229025362 0)
(-0.126031185462 -0.115434202832 0)
(-0.1438359205 -0.117242931741 0)
(-0.16044358913 -0.116322377175 0)
(-0.175912170972 -0.113317054732 0)
(-0.190296068559 -0.108801140509 0)
(-0.203652796729 -0.103263959024 0)
(-0.216043310124 -0.0971032698295 0)
(-0.227529675741 -0.0906292926506 0)
(-0.238171256211 -0.0840737689639 0)
(-0.248022073029 -0.0776019458576 0)
(-0.257129592372 -0.0713253913286 0)
(-0.265534816988 -0.065314181111 0)
(-0.273273185831 -0.0596075592583 0)
(-0.280375789096 -0.0542226831483 0)
(-0.286870539431 -0.0491614399913 0)
(-0.292783105733 -0.0444155476889 0)
(-0.298137549572 -0.0399702494591 0)
(-0.302956688476 -0.0358069223863 0)
(-0.307262252017 -0.0319048793934 0)
(-0.311074892888 -0.0282425922733 0)
(-0.31441412224 -0.0247985139454 0)
(-0.317298217251 -0.0215516184723 0)
(-0.319744128768 -0.0184817423694 0)
(-0.321767390041 -0.0155698000788 0)
(-0.323382031247 -0.0127979563787 0)
(-0.324600582067 -0.0101497518518 0)
(-0.325434281181 -0.00761006375561 0)
(-0.325893801864 -0.0051648322549 0)
(-0.32598928564 -0.00280115002668 0)
(-0.32572600759 -0.000509227926659 0)
(-0.325096519518 0.00171517170202 0)
(-0.324146238457 0.00387639443626 0)
(-0.32285604726 0.00598458033158 0)
(-0.321235752501 0.00804776831077 0)
(-0.319288910221 0.0100728235911 0)
(-0.317019386539 0.0120658889995 0)
(-0.314430841853 0.0140326258275 0)
(-0.311526678491 0.0159784548863 0)
(-0.308309919198 0.0179087695978 0)
(-0.304783051063 0.0198290962304 0)
(-0.30094783785 0.0217451820835 0)
(-0.296805114672 0.0236629977289 0)
(-0.292354585597 0.025588642108 0)
(-0.287594650754 0.0275281443747 0)
(-0.282522293907 0.0294871618334 0)
(-0.277133063755 0.0314705829132 0)
(-0.271421181217 0.0334820542083 0)
(-0.265379801157 0.0355234630311 0)
(-0.259001449529 0.0375944182808 0)
(-0.252278642451 0.0396917879541 0)
(-0.245204674199 0.0418093586611 0)
(-0.237774543114 0.0439376805934 0)
(-0.229985959974 0.046064167472 0)
(-0.221840371957 0.0481734898346 0)
(-0.21334391282 0.0502483110892 0)
(-0.204508185977 0.0522703692504 0)
(-0.19535082822 0.0542218430153 0)
(-0.185895671705 0.0560871498168 0)
(-0.176172691127 0.0578546340167 0)
(-0.166217283151 0.059519021701 0)
(-0.156069468769 0.0610830648415 0)
(-0.145772705408 0.0625599118224 0)
(-0.135371024888 0.0639760827714 0)
(-0.124908892655 0.0653702421363 0)
(-0.114428131922 0.0667982776703 0)
(-0.103963637702 0.0683348565064 0)
(-0.0935403372478 0.0700659026511 0)
(-0.0831723817163 0.0720907315907 0)
(-0.0728602749725 0.0745233192973 0)
(-0.062571840743 0.0774701563453 0)
(-0.052248769213 0.0809968014379 0)
(-0.0417829451822 0.0850445541219 0)
(-0.0307951672284 0.0892377347672 0)
(-0.0192071633677 0.0919600678906 0)
(-0.00692692322111 0.0865157919392 0)
(-0.0186404444895 -0.0738730654811 0)
(-0.0397641987756 -0.0954029424385 0)
(-0.064382458585 -0.11077284623 0)
(-0.0860512891549 -0.12228606606 0)
(-0.10595972343 -0.129674698847 0)
(-0.12413346788 -0.13333947776 0)
(-0.140763727095 -0.13376972239 0)
(-0.156024748299 -0.131598906088 0)
(-0.170059758652 -0.127449340787 0)
(-0.182997731857 -0.121884498595 0)
(-0.194952573868 -0.115385618514 1.15944810391e-28)
(-0.206022724309 -0.108342240273 -1.1445838728e-28)
(-0.216290529006 -0.101054921963 0)
(-0.225822400556 -0.0937448342184 0)
(-0.234670457686 -0.0865669105575 0)
(-0.242875133999 -0.0796237168532 0)
(-0.250468167906 -0.0729782229624 0)
(-0.257475401373 -0.0666645500235 0)
(-0.263919040861 -0.0606964499217 0)
(-0.269819259523 -0.0550736898296 0)
(-0.275195182485 -0.0497867034849 0)
(-0.280065379626 -0.0448199067168 0)
(-0.284448028857 -0.0401540302224 0)
(-0.28836085687 -0.0357677485119 0)
(-0.291820988614 -0.0316388126347 0)
(-0.294844755581 -0.0277448364246 0)
(-0.297447524285 -0.0240638389071 0)
(-0.299643545242 -0.0205746074961 0)
(-0.30144574932 -0.0172569491849 0)
(-0.302865827835 -0.014091894802 0)
(-0.303913988824 -0.0110618586946 0)
(-0.304599591482 -0.00815062701074 8.67525942133e-29)
(-0.304931728869 -0.00534296989621 -8.74354898976e-29)
(-0.304917587649 -0.00262483206797 0)
(-0.304556026432 1.3425870983e-05 0)
(-0.303856001924 0.00257289893295 0)
(-0.302837034107 0.00506203877146 0)
(-0.301489019903 0.00749564659946 0)
(-0.299819331251 0.00988083766876 0)
(-0.297831148267 0.0122243923944 0)
(-0.295528189177 0.0145324083669 0)
(-0.292914315686 0.0168105820143 0)
(-0.289993461861 0.0190644887945 0)
(-0.286769470325 0.0212998436458 0)
(-0.283245870414 0.0235227033842 0)
(-0.279425606979 0.0257395852649 0)
(-0.275310737769 0.0279574802806 0)
(-0.270902124431 0.0301837439839 0)
(-0.266199149668 0.0324258522991 0)
(-0.261199499844 0.0346910178672 0)
(-0.255899056862 0.036985673526 0)
(-0.250291943099 0.0393148448923 0)
(-0.244370759147 0.0416814497235 0)
(-0.238127048986 0.0440855758352 0)
(-0.231552009675 0.0465238140398 0)
(-0.224637430025 0.0489887420306 0)
(-0.217376830729 0.0514686261144 0)
(-0.209766727722 0.0539474645193 0)
(-0.201807947232 0.0564053865328 0)
(-0.193506885315 0.0588194978887 0)
(-0.184876530347 0.0611652357323 0)
(-0.17593738953 0.063417851608 0)
(-0.166717620966 0.0655549938645 0)
(-0.157253483986 0.0675580951834 0)
(-0.147588253059 0.0694162528388 0)
(-0.137771628392 0.0711274438765 0)
(-0.127859427766 0.0727009421655 0)
(-0.117907809832 0.0741637716106 0)
(-0.107976974356 0.075553843579 0)
(-0.0981243138359 0.0769293903784 0)
(-0.0884038947625 0.0783759272087 0)
(-0.0788585518462 0.0799893250668 0)
(-0.0695152573726 0.0818778281273 0)
(-0.0603997476423 0.0841785789655 0)
(-0.0514920100264 0.0870285866199 0)
(-0.0427538796307 0.0905397957109 0)
(-0.0341196413507 0.0947316043911 0)
(-0.0251504473179 0.0993738857956 0)
(-0.015997188383 0.103089472011 0)
(-0.00559051468837 0.0983994553974 0)
(-0.017198280974 -0.100958187185 0)
(-0.0381286183482 -0.120314285971 0)
(-0.0623692547313 -0.133431778732 0)
(-0.0832499371052 -0.142841060339 0)
(-0.102342995565 -0.148297954712 0)
(-0.119549672861 -0.150228185277 0)
(-0.135112828868 -0.149132789744 0)
(-0.149237862284 -0.145625445161 0)
(-0.162114016188 -0.140305995541 0)
(-0.173909950337 -0.133716104853 0)
(-0.184768581232 -0.126314188873 0)
(-0.194805884327 -0.118466934392 0)
(-0.204111936204 -0.110453312038 0)
(-0.212754083601 -0.102475682495 0)
(-0.220781503249 -0.0946739501402 0)
(-0.228230085774 -0.0871397067476 0)
(-0.235126852319 -0.0799286356247 0)
(-0.241493440404 -0.0730705048242 0)
(-0.247348541381 -0.0665767736791 0)
(-0.252709400979 -0.0604461785983 0)
(-0.257592600858 -0.0546687574812 0)
(-0.26201435273 -0.0492287321215 0)
(-0.265990512637 -0.0441065772277 0)
(-0.269536443418 -0.039280515645 0)
(-0.272666831155 -0.0347276056397 0)
(-0.27539550345 -0.0304245292158 0)
(-0.277735284602 -0.0263481648539 0)
(-0.279697879508 -0.0224760050247 0)
(-0.281293723129 -0.0187864698522 0)
(-0.282531902153 -0.0152591534017 0)
(-0.283420203432 -0.0118750276444 0)
(-0.283965915832 -0.00861652518302 0)
(-0.284176372964 -0.00546735932287 0)
(-0.284055071398 -0.00241289798458 0)
(-0.283592909904 0.000557044288116 0)
(-0.282823317751 0.00344480970113 0)
(-0.281725482272 0.00625945903416 0)
(-0.280306407752 0.00901487556519 0)
(-0.278569358103 0.0117183823664 0)
(-0.276517635924 0.0143765751204 0)
(-0.274155025481 0.0169952544033 0)
(-0.271485860887 0.0195798455241 0)
(-0.268514950181 0.0221357821507 0)
(-0.265247377149 0.0246688508816 0)
(-0.26168820883 0.0271854623706 1.01178297769e-28)
(-0.257842127768 0.0296928202668 -1.01643913087e-28)
(-0.25371301146 0.0321989610991 0)
(-0.24930348889 0.0347126400986 0)
(-0.24461451373 0.0372430425772 0)
(-0.239645004192 0.0397993090956 0)
(-0.234391607917 0.0423898770226 0)
(-0.228848652041 0.0450216617075 0)
(-0.223008331218 0.0476991254314 0)
(-0.216861188399 0.0504232905573 0)
(-0.210396930936 0.0531907884814 0)
(-0.20360554247 0.055993116658 0)
(-0.196478693462 0.0588161096523 0)
(-0.189011313533 0.0616399098005 0)
(-0.181203251602 0.0644393458529 0)
(-0.173060984929 0.0671848142525 0)
(-0.164598738591 0.0698442171699 0)
(-0.155840243094 0.0723839804519 0)
(-0.146818129218 0.0747736507427 0)
(-0.137575915486 0.0769853495545 0)
(-0.128165465471 0.0790009636368 0)
(-0.118646842807 0.0808121342377 0)
(-0.109090959764 0.0824207754731 0)
(-0.0995648576849 0.083855082968 0)
(-0.0901505875504 0.085150450518 0)
(-0.0809165794146 0.086362865072 0)
(-0.0719399391587 0.0875900971566 0)
(-0.0632907654355 0.0889432022712 0)
(-0.0549979031734 0.0905343917063 0)
(-0.0471202028201 0.092525086805 0)
(-0.0396431749265 0.0950835684316 0)
(-0.0325479486377 0.0983644835266 0)
(-0.0258172966192 0.102464216013 0)
(-0.0189343499723 0.107276213179 0)
(-0.0123908651962 0.111800296896 0)
(-0.00415811279586 0.107994393915 0)
(-0.015765666659 -0.126571514016 0)
(-0.0359572891617 -0.144225386942 0)
(-0.0592453217702 -0.155222669017 0)
(-0.0790478316063 -0.162510072842 0)
(-0.0971739907585 -0.165981949048 0)
(-0.113384543407 -0.16612578547 0)
(-0.127954214349 -0.163465326418 0)
(-0.141090217644 -0.158607401219 0)
(-0.15299897204 -0.152131190785 0)
(-0.16386289672 -0.144551155449 0)
(-0.173834049393 -0.13629513854 0)
(-0.183032495513 -0.127699685791 0)
(-0.19154869647 -0.119016896037 0)
(-0.199448505005 -0.110427329665 0)
(-0.206779174833 -0.102054718282 0)
(-0.213575065862 -0.0939796626807 0)
(-0.219862294442 -0.086251006001 0)
(-0.225662074004 -0.0788946205146 0)
(-0.230992847598 -0.0719199178544 0)
(-0.235871483374 -0.0653245877622 0)
(-0.24031383628 -0.0590980502997 0)
(-0.244334933571 -0.0532240012688 0)
(-0.247948975709 -0.0476823153995 0)
(-0.251169259427 -0.0424504839929 0)
(-0.254008089969 -0.0375047025526 0)
(-0.256476709062 -0.0328206838807 0)
(-0.258585250306 -0.0283742589968 0)
(-0.260342701557 -0.0241418222574 0)
(-0.261756810332 -0.020100672243 0)
(-0.262833995315 -0.0162292712307 0)
(-0.263579462556 -0.0125074435175 0)
(-0.263998154406 -0.00891652845057 0)
(-0.264095091659 -0.00543958185099 9.90475941037e-29)
(-0.263870180748 -0.00206206064158 -1.00372639621e-28)
(-0.263309059566 0.00122703561058 0)
(-0.262448855561 0.00443421526598 0)
(-0.261261991974 0.00756873459823 0)
(-0.259755839308 0.0106412653863 0)
(-0.257931523279 0.0136592752349 0)
(-0.255791668307 0.0166286886705 0)
(-0.253340018662 0.0195544913938 0)
(-0.25058147123 0.0224413214998 0)
(-0.247521942747 0.0252939948512 0)
(-0.244168112949 0.0281179634939 0)
(-0.240527050862 0.0309196819395 0)
(-0.236605738653 0.033706851003 0)
(-0.23241051441 0.0364885055668 0)
(-0.227946465533 0.0392749114807 0)
(-0.223216819222 0.0420772390255 0)
(-0.218222392524 0.044906990229 0)
(-0.212961179664 0.047775174627 0)
(-0.20742816287 0.0506912531103 0)
(-0.201615411419 0.0536619178922 0)
(-0.195512541348 0.056689770995 0)
(-0.189107667561 0.0597719479625 0)
(-0.18238868748 0.0628991331698 0)
(-0.175345043977 0.0660546284174 0)
(-0.16796967584 0.0692142671874 0)
(-0.160260989063 0.0723468103122 0)
(-0.152225464331 0.0754144623516 0)
(-0.143878061991 0.0783765547659 0)
(-0.135246524015 0.0811879386851 0)
(-0.12636731454 0.0838092661462 0)
(-0.117292879052 0.0861999861601 0)
(-0.10808363858 0.0883329622383 0)
(-0.0988099228246 0.0901924901101 0)
(-0.0895633014193 0.0917676864687 0)
(-0.0804125292045 0.093088436372 0)
(-0.0714812639555 0.0941889868003 0)
(-0.0628354908345 0.0951179765583 0)
(-0.0545748566903 0.0959803303111 0)
(-0.0468223803311 0.0969141210412 0)
(-0.039588960144 0.0980305370818 0)
(-0.0329805073415 0.0995140139559 0)
(-0.0269838476081 0.101567697253 0)
(-0.0216038554276 0.104387292375 0)
(-0.0168647306105 0.108149175511 0)
(-0.0121693869233 0.112827643439 0)
(-0.00838346655213 0.117885221447 0)
(-0.00261498391992 0.11504123706 0)
(-0.0143544479558 -0.150447426963 0)
(-0.033495611502 -0.166777626386 0)
(-0.0555283616877 -0.175833949891 0)
(-0.0741036002812 -0.181098593923 0)
(-0.09117650878 -0.182647541288 0)
(-0.10637864848 -0.181047427121 0)
(-0.120007844153 -0.176855736615 0)
(-0.132254540332 -0.17068210386 0)
(-0.143324111357 -0.16308797736 0)
(-0.153395905053 -0.1545595488 0)
(-0.162618610296 -0.145491830214 0)
(-0.171108481519 -0.136189450969 0)
(-0.17895265297 -0.126877000026 0)
(-0.186214864063 -0.117713586775 0)
(-0.192941702972 -0.10880761264 0)
(-0.199168077634 -0.100229532418 0)
(-0.204921354322 -0.0920218853888 0)
(-0.210224128682 -0.0842067709794 0)
(-0.215095885326 -0.0767913090595 0)
(-0.219553888873 -0.0697716529683 0)
(-0.223613616027 -0.0631360039823 0)
(-0.227288955105 -0.0568669303742 0)
(-0.230592315279 -0.0509431768994 0)
(-0.233534708925 -0.0453410779372 0)
(-0.23612583501 -0.0400356472266 0)
(-0.238374163801 -0.0350013979445 0)
(-0.240287013414 -0.0302129444127 0)
(-0.241870585976 -0.0256454461368 0)
(-0.24312991931 -0.0212749570563 0)
(-0.244068809218 -0.0170786859468 0)
(-0.244689933907 -0.0130351643063 0)
(-0.244995715818 -0.00912442905685 0)
(-0.244988307432 -0.00532858972058 0)
(-0.244663945493 -0.00163290724595 0)
(-0.244004628255 0.00197416277234 0)
(-0.243050232037 0.00550050175205 0)
(-0.24176635286 0.00895578038998 0)
(-0.240160091535 0.01234879185 0)
(-0.238230798575 0.0156856844244 0)
(-0.235980231897 0.0189709445436 0)
(-0.233411939182 0.0222080894573 0)
(-0.230531300123 0.0254003690699 0)
(-0.22734536898 0.0285514257816 0)
(-0.223862573981 0.0316658860279 0)
(-0.220092271128 0.0347498500137 0)
(-0.216044161935 0.0378112427075 0)
(-0.21172759158 0.0408599818199 0)
(-0.207150757439 0.0439079149924 0)
(-0.20231987911 0.0469684754477 0)
(-0.197238406708 0.0500560136014 0)
(-0.191906366792 0.0531847891734 0)
(-0.186319977829 0.0563676212516 0)
(-0.180471614979 0.0596142991528 0)
(-0.174350137505 0.0629298957662 0)
(-0.167942075369 0.0663126527845 0)
(-0.16123300476 0.0697529150285 0)
(-0.154209800377 0.0732314118751 0)
(-0.146863127195 0.0767191693947 0)
(-0.139189260008 0.0801783363902 0)
(-0.131195194305 0.0835606935924 0)
(-0.122895092388 0.0868168728993 0)
(-0.114323124024 0.089885649024 0)
(-0.105516421948 0.0927192688145 0)
(-0.0965405436467 0.0952597503291 0)
(-0.0874623080603 0.0974687629574 0)
(-0.0783602432345 0.0993231851536 0)
(-0.0693620354558 0.100794604193 0)