/*--------------------------------*- C++ -*----------------------------------*\
| =========                 |                                                 |
| \\      /  F ield         | OpenFOAM: The Open Source CFD Toolbox           |
|  \\    /   O peration     | Version:  v1806                                 |
|   \\  /    A nd           | Web:      www.OpenFOAM.com                      |
|    \\/     M anipulation  |                                                 |
\*---------------------------------------------------------------------------*/
FoamFile
{
    version     2.0;
    format      ascii;
    class       volVectorField;
    location    "500";
    object      Ua;
}
// * * * * * * * * * * * * * * * * * * * * * * * * * * * * * * * * * * * * * //

dimensions      [0 1 -1 0 0 0 0];


internalField   nonuniform List<vector> 
6400
(
(-0.636508335608 1.15552566556 0)
(-4.14224597011 4.70628834528 0)
(-6.85120978372 7.12177903781 0)
(-8.72644302352 5.47691800838 0)
(-9.83822052405 3.5410280751 0)
(-10.0824565364 -3.00129840638 0)
(-11.4613080793 -6.41387875834 0)
(-12.3512724862 -9.45892479368 0)
(-12.9948320269 -12.6015023614 0)
(-13.5201207469 -15.8179506984 0)
(-13.9619498565 -19.1033055345 0)
(-14.3314488277 -22.4441627015 0)
(-14.6385196406 -25.8251886271 0)
(-14.8933306438 -29.2334853332 0)
(-15.1046007378 -32.6588921273 0)
(-15.2792868594 -36.093230133 0)
(-15.4230212691 -39.5298611761 0)
(-15.5404790763 -42.9635410368 0)
(-15.6355548061 -46.390326655 0)
(-15.7114647685 -49.807469958 0)
(-15.7708443261 -53.2133083807 0)
(-15.8158458387 -56.6071712749 0)
(-15.8482272537 -59.9893025684 0)
(-15.8694274655 -63.3607977776 0)
(-15.8806291364 -66.7235539842 0)
(-15.8828112089 -70.0802320444 0)
(-15.8767931178 -73.4342331719 0)
(-15.8632707057 -76.7896904232 0)
(-15.8428516122 -80.1514767933 0)
(-15.8160771615 -83.5252451517 0)
(-15.7834942927 -86.9174943966 0)
(-15.7456610893 -90.3358192975 0)
(-15.7035683657 -93.7892340778 0)
(-15.6580455489 -97.2892801188 0)
(-15.6103401779 -100.847302215 0)
(-15.5487598411 -104.462984372 0)
(-15.4531989667 -108.073198358 0)
(-15.3162212697 -111.548834487 0)
(-15.1521100038 -114.660375428 0)
(-14.9724960258 -117.376918333 0)
(-14.784980495 -119.681932802 0)
(-14.5929816217 -121.565276085 0)
(-14.3979779831 -123.020375772 0)
(-14.2009754111 -124.043567897 0)
(-14.0028948577 -124.6339077 0)
(-13.8045635775 -124.792964109 0)
(-13.6067128415 -124.524643752 0)
(-13.4100267124 -123.835103145 0)
(-13.2151916871 -122.732741488 0)
(-13.022928217 -121.228240705 0)
(-12.8340109629 -119.334640761 0)
(-12.6492853176 -117.067442446 0)
(-12.469681315 -114.444735032 0)
(-12.2962219152 -111.487333945 0)
(-12.1300224507 -108.218911404 0)
(-11.9722775224 -104.666090076 0)
(-11.8242327496 -100.858468773 0)
(-11.6871386692 -96.8285392639 0)
(-11.5621861832 -92.6114579913 0)
(-11.4504239058 -88.2446342613 0)
(-11.3526605712 -83.7671112414 0)
(-11.2693572314 -79.218723699 0)
(-11.2005153983 -74.6390398246 0)
(-11.1455698974 -70.0661084619 0)
(-11.1032885128 -65.5350539018 0)
(-11.0716955578 -61.076578256 0)
(-11.0479879531 -56.7154162783 0)
(-11.0285281832 -52.4688624359 0)
(-11.0086864397 -48.3452887858 0)
(-10.983103681 -44.3431120852 0)
(-10.9448889637 -40.4492399341 0)
(-10.8876271228 -36.6399301336 0)
(-10.8002702547 -32.8769635972 0)
(-10.6810685909 -29.1197474367 0)
(-10.5023004839 -25.2998347645 0)
(-10.3027730215 -21.4004576222 0)
(-9.92117464271 -17.222837225 0)
(-9.63768745025 -12.9348488674 0)
(-7.80380812257 -6.91004119657 0)
(-6.253735804 -1.01184621126 0)
(-2.23445821381 -2.46759437296 0)
(-1.92938849728 -4.48917496602 0)
(-4.00700981058 -7.45884453862 0)
(-5.72126401637 -6.23521982054 0)
(-7.87981323275 -4.20622889795 0)
(-9.88110908625 -1.80252607876 0)
(-11.4963110269 0.365441196976 0)
(-12.9364994399 2.34343312096 0)
(-14.2912653202 4.28583046834 0)
(-15.5715127142 6.2519243269 0)
(-16.770079382 8.26141790742 0)
(-17.8815254949 10.3219492583 0)
(-18.9053324268 12.4364845372 0)
(-19.8444738724 14.60496495 0)
(-20.7035691499 16.825545787 0)
(-21.4878218894 19.0956054849 0)
(-22.2025695765 21.4123072326 0)
(-22.8530619021 23.7728569204 0)
(-23.4443072156 26.1746545959 0)
(-23.9809678185 28.6154105218 0)
(-24.4673095354 31.0932463919 0)
(-24.9071916304 33.6067746524 0)
(-25.3040806393 36.1551663062 0)
(-25.661074324 38.7382039421 0)
(-25.9809302124 41.3563301897 0)
(-26.2660952738 44.0106874785 0)
(-26.5187341517 46.7031589117 0)
(-26.7407596297 49.4364059195 0)
(-26.9338509047 52.2139164836 0)
(-27.0995021234 55.0400480419 0)
(-27.2389725157 57.9201130213 0)
(-27.3534842074 60.8603700903 0)
(-27.4436989028 63.8682521536 0)
(-27.5120985699 66.9515606741 0)
(-27.5627553978 70.1191862155 0)
(-27.6278381121 73.37241838 0)
(-27.7169193883 76.5195893711 0)
(-27.8040129952 79.4310638621 0)
(-27.8560043719 81.9497360267 0)
(-27.8643274794 84.0772606419 0)
(-27.8286107803 85.8133537765 0)
(-27.7486666058 87.1581064322 0)
(-27.6233905504 88.1135371299 0)
(-27.4513860856 88.6837753362 0)
(-27.2312715399 88.8749544671 0)
(-26.9616701131 88.6951911092 0)
(-26.6411641109 88.1546031754 0)
(-26.2683036185 87.265312404 0)
(-25.841646742 86.0414285359 0)
(-25.3598075787 84.4990447764 0)
(-24.8215082517 82.6562485996 0)
(-24.2256415905 80.5331525201 0)
(-23.5713496155 78.1519254562 0)
(-22.858120954 75.5368135101 0)
(-22.0859085131 72.7141172856 0)
(-21.2552665163 69.712103423 0)
(-20.3675035785 66.5608111189 0)
(-19.4248438796 63.2917321224 0)
(-18.4305851382 59.9373352563 0)
(-17.3892371768 56.5304331342 0)
(-16.3066230969 53.1033901763 0)
(-15.1899236535 49.6872022138 0)
(-14.047647661 46.3104811965 0)
(-12.8895178555 42.9984050004 0)
(-11.7262641026 39.771689582 0)
(-10.569342241 36.6456519244 0)
(-9.43056164783 33.6294243948 0)
(-8.3217319853 30.7253721073 0)
(-7.25411952942 27.9288320004 0)
(-6.23837515455 25.228102573 0)
(-5.28322845188 22.6052798295 0)
(-4.39762351122 20.0368083449 0)
(-3.58360675321 17.4980119503 0)
(-2.85496866777 14.9607069679 0)
(-2.18442396121 12.4221734175 0)
(-1.65508152227 9.85849305471 0)
(-1.02394884692 7.45388700889 0)
(-1.0899611873 5.08626451108 0)
(1.09307700217 5.30065311558 0)
(-2.98423581878 6.10367020266 0)
(-5.6125835249 -5.90588486749 0)
(-4.39669965668 -7.73327071503 0)
(-5.56392586697 -4.75606266571 -7.2437609974e-29)
(-5.50694921287 -3.3752431053 4.53973823071e-29)
(-5.78650544504 -2.60735368424 6.42404602459e-29)
(-6.38320814885 -2.49252533956 -5.25548911904e-29)
(-7.15825129561 -2.70346005024 1.03348152259e-28)
(-8.0323479939 -3.01939018119 -9.19298519127e-29)
(-8.92427982805 -3.37488617655 0)
(-9.77493101404 -3.77022374096 0)
(-10.554542362 -4.2195733619 0)
(-11.2525946154 -4.73463454908 0)
(-11.8679920982 -5.32319287754 0)
(-12.4042578461 -5.99034550536 0)
(-12.8672006783 -6.73912210701 0)
(-13.2634888566 -7.57079539251 0)
(-13.5998070077 -8.48526119789 0)
(-13.8824422075 -9.48146616852 0)
(-14.1171096786 -10.5577849897 0)
(-14.3088925075 -11.7123162231 0)
(-14.4622406852 -12.9431120929 0)
(-14.5810057088 -14.2483631866 0)
(-14.6684938369 -15.6265489234 0)
(-14.7275262909 -17.0765632876 0)
(-14.760499372 -18.5978198463 0)
(-14.7694417405 -20.1903439341 0)
(-14.7560670245 -21.854856868 0)
(-14.7218229041 -23.592853364 0)
(-14.6679306421 -25.4066974391 0)
(-14.5954321868 -27.2996797671 -2.0985542773e-27)
(-14.5051865952 -29.2762393596 2.09680686814e-27)
(-14.3979612931 -31.3417962963 0)
(-14.2739256697 -33.503850129 0)
(-14.1321366799 -35.7696387908 0)
(-13.9632104518 -38.1539878423 0)
(-13.7501264689 -40.5856174772 0)
(-13.5248898575 -42.7546901023 0)
(-13.3203816094 -44.5964389127 0)
(-13.1459361067 -46.1143364162 0)
(-12.9974428762 -47.3055818725 0)
(-12.8718537597 -48.1714448309 0)
(-12.7689361361 -48.7178303187 0)
(-12.6892600541 -48.9536854031 0)
(-12.6333052078 -48.8903435696 0)
(-12.6013718472 -48.5413660712 0)
(-12.5935505924 -47.9223588352 0)
(-12.6096119173 -47.0507071265 0)
(-12.6488859858 -45.9453130263 0)
(-12.7101667 -44.6263768126 0)
(-12.7916306532 -43.1152221442 0)
(-12.8907605597 -41.4341537409 0)
(-13.0042717259 -39.6063351609 0)
(-13.1280457087 -37.6556699054 0)
(-13.2570765381 -35.6066628098 0)
(-13.3854366318 -33.4842351342 0)
(-13.5062718265 -31.3134671479 0)
(-13.6118370045 -29.1192479017 0)
(-13.6935850526 -26.9258224385 0)
(-13.7423205912 -24.7562409197 0)
(-13.7484269926 -22.6317314684 0)
(-13.702168174 -20.5710342363 0)
(-13.5940587558 -18.5897485239 0)
(-13.4152835335 -16.6997508543 0)
(-13.1581405257 -14.9087443242 0)
(-12.8164639218 -13.219990892 0)
(-12.3860036747 -11.6322747956 0)
(-11.8646756673 -10.1401133178 0)
(-11.2527778432 -8.73428138626 0)
(-10.5528218836 -7.40261391899 0)
(-9.76987099595 -6.13138770921 0)
(-8.90993381178 -4.90671452552 0)
(-7.98309071013 -3.71814985573 0)
(-6.99277824003 -2.55909621534 0)
(-5.96269248662 -1.44046466015 0)
(-4.85650859926 -0.369455465852 0)
(-3.81110830288 0.571354902486 0)
(-2.46016382296 1.49027019566 0)
(-2.13518441493 2.0311699629 0)
(1.94697985817 4.85394382587 0)
(-4.29829097054 6.48044799791 0)
(-5.66405235831 -9.36310667651 0)
(-7.13105504615 -3.68168573862 0)
(-4.96691360084 -2.62215782773 0)
(-3.96199876614 -3.44455115383 0)
(-4.61993148886 -3.89129361084 0)
(-5.70849741319 -4.01714516345 0)
(-6.83927472603 -3.94987629206 0)
(-7.94969277991 -3.71802698453 0)
(-8.99031408711 -3.36287725148 0)
(-9.93094126904 -2.93219443703 0)
(-10.7698523712 -2.45926606573 0)
(-11.5176791147 -1.96189552986 0)
(-12.186480846 -1.44802486153 0)
(-12.787201628 -0.919903928406 0)
(-13.3295346453 -0.376435073733 0)
(-13.8218015365 0.185387268808 0)
(-14.270877529 0.769510283438 0)
(-14.6823176222 1.38019371929 0)
(-15.0605864062 2.02164019857 0)
(-15.4092808568 2.69781094502 0)
(-15.7313131986 3.4123630834 0)
(-16.0290585565 4.16866290334 0)
(-16.3044754698 4.96984489115 0)
(-16.5592027893 5.81889836385 0)
(-16.7946367863 6.71876981739 0)
(-17.0119901538 7.67247391 0)
(-17.2123414325 8.68321044646 0)
(-17.3966620123 9.75448200595 0)
(-17.5658660132 10.8902251062 0)
(-17.7207517244 12.0949224464 0)
(-17.862202218 13.3737939733 0)
(-17.9905620914 14.7328200819 0)
(-18.1073847025 16.1793526542 0)
(-18.2112765682 17.7215761152 0)
(-18.3143560646 19.3725615117 0)
(-18.4027100495 20.9617291214 0)
(-18.4442802117 22.3113622042 0)
(-18.438456791 23.4181293303 0)
(-18.3928213533 24.2734668878 0)
(-18.3079563486 24.8768210125 0)
(-18.1822564056 25.2348981054 0)
(-18.0157974665 25.3588287101 0)
(-17.8098706535 25.2630459177 0)
(-17.5660629407 24.9647410656 0)
(-17.2861172413 24.4832087105 0)
(-16.9720908577 23.8391622178 4.23187453514e-27)
(-16.6264545232 23.0541422094 -4.27038008959e-27)
(-16.252118986 22.1500234763 0)
(-15.8524440085 21.1485969495 0)
(-15.4312425505 20.0712176045 0)
(-14.9927681331 18.9385154283 0)
(-14.5416751776 17.7701598176 0)
(-14.0829463211 16.5846622634 0)
(-13.6217815592 15.3991981082 0)
(-13.1634436381 14.2294312703 0)
(-12.7130552618 13.0893292131 0)
(-12.2753477201 11.9909659539 0)
(-11.8543663017 10.9443196787 2.73137107179e-27)
(-11.4531464483 9.95708478205 -2.79891295325e-27)
(-11.0733832354 9.0345253738 0)
(-10.7151259101 8.1794049171 0)
(-10.3765352508 7.39202327489 0)
(-10.0537419856 6.67038891051 0)
(-9.74084341304 6.01053733576 0)
(-9.43005266287 5.40699969106 0)
(-9.11202907942 4.85340208245 0)
(-8.77631685879 4.34319063787 0)
(-8.41203032273 3.87041166337 0)
(-8.00829860432 3.43067727035 0)
(-7.55565811668 3.02198476362 0)
(-7.04501892512 2.64624421444 0)
(-6.47335112657 2.30916809078 0)
(-5.83047504749 2.02503889042 0)
(-5.13842603906 1.8067674254 0)
(-4.33971829668 1.69622471986 0)
(-3.6255559443 1.6698334944 0)
(-2.46532414465 1.92664374964 0)
(-2.72177400008 2.07217671428 0)
(2.38324452223 4.97283843867 0)
(-5.87527260882 6.15360584519 0)
(11.4137732126 -18.2389518428 0)
(-3.97758032593 -3.49255843985 0)
(-2.06571637443 -3.46351920246 0)
(-2.4460896872 -4.76168891576 0)
(-4.35316358174 -5.14296430819 0)
(-5.90848304611 -5.13580403178 0)
(-7.0945170311 -4.94908890355 0)
(-8.09984079476 -4.63622051229 0)
(-8.96027029875 -4.26177215442 0)
(-9.68741777935 -3.88151678278 0)
(-10.307352582 -3.52765794566 0)
(-10.8455953745 -3.2155914097 0)
(-11.3199193739 -2.95178420117 0)
(-11.7421395488 -2.73805035271 0)
(-12.1205462863 -2.57383850119 0)
(-12.4610639051 -2.45759803875 0)
(-12.7678559465 -2.38755761008 0)
(-13.0438283355 -2.36211877601 0)
(-13.2910488573 -2.38002985759 0)
(-13.5110436546 -2.4404465562 0)
(-13.7049862318 -2.5429361825 0)
(-13.8738160734 -2.68746001493 0)
(-14.0183139799 -2.87435189506 0)
(-14.1391497871 -3.10430511291 0)
(-14.2369109451 -3.37837087114 0)
(-14.3121201589 -3.69797244919 0)
(-14.3652419823 -4.06493238274 0)
(-14.3966938283 -4.48152020182 0)
(-14.4068269557 -4.95050243946 0)
(-14.3959784369 -5.47524716172 0)
(-14.3643142979 -6.05972793408 -2.95060543195e-27)
(-14.3122499047 -6.70885719135 2.96157219438e-27)
(-14.2392003258 -7.42784855154 0)
(-14.1466907536 -8.2244463621 0)
(-14.028709071 -9.10272867823 0)
(-13.9044865071 -9.87894832208 0)
(-13.7906013572 -10.4987487989 0)
(-13.6893483161 -10.9480272995 0)
(-13.6019359194 -11.2250304175 0)
(-13.5276902565 -11.3349524942 0)
(-13.4642756805 -11.2862468382 0)
(-13.409373469 -11.0906627883 0)
(-13.3609620256 -10.7631325015 0)
(-13.3168507751 -10.3208565064 0)
(-13.2744624112 -9.78227657438 0)
(-13.2308823943 -9.16623087482 0)
(-13.1829396524 -8.49126212596 0)
(-13.1272554872 -7.77503939549 0)
(-13.0602986566 -7.03390117609 0)
(-12.9784719054 -6.28252653336 0)
(-12.8782290911 -5.53372839251 0)
(-12.7562156273 -4.79835018658 0)
(-12.609426997 -4.08524796948 0)
(-12.4353794787 -3.40133675146 0)
(-12.2322830832 -2.75168596416 0)
(-11.9992016677 -2.13964917687 0)
(-11.7361799934 -1.56702276202 0)
(-11.4443140895 -1.03422960262 0)
(-11.12573963 -0.540531211206 0)
(-10.7835165088 -0.0842686606988 0)
(-10.4213952142 0.336866099507 0)
(-10.0434656963 0.725536173114 0)
(-9.65370470294 1.08445361458 0)
(-9.25546313396 1.41608107844 0)
(-8.8509358929 1.72236298375 0)
(-8.44070921697 2.00449956015 0)
(-8.02337086518 2.26279620355 0)
(-7.59545914292 2.49654376334 0)
(-7.15121989747 2.70405188898 0)
(-6.68380612715 2.88252656585 0)
(-6.18361072117 3.02878616781 0)
(-5.64587846666 3.13828748144 0)
(-5.0540169013 3.2104605571 0)
(-4.43355219867 3.23877231544 0)
(-3.70570660908 3.24974296329 0)
(-3.12753983096 3.20261613989 0)
(-1.99222567653 3.32404563222 0)
(-2.78193738965 3.16761034386 0)
(3.35016194105 5.91743607108 0)
(-7.45681365105 6.29669233382 0)
(21.2584672449 -17.3791242922 0)
(-6.47010568994 -2.68595462666 0)
(-1.77539360935 -5.3568319929 0)
(-2.87231906676 -6.69103953668 0)
(-5.20974511767 -6.73076063295 0)
(-6.61106584223 -6.44293767598 0)
(-7.5247322196 -5.99474164417 0)
(-8.2675998541 -5.45321567851 0)
(-8.88801524779 -4.89440799391 0)
(-9.40793183428 -4.36283645966 0)
(-9.85989278585 -3.87453148444 0)
(-10.2684852558 -3.43221137523 0)
(-10.6470946357 -3.03310310423 0)
(-11.0025837236 -2.6719600852 0)
(-11.3386401655 -2.34262335645 0)
(-11.6571645901 -2.03893174102 0)
(-11.9589466656 -1.755137065 0)
(-12.2441476709 -1.48602255178 0)
(-12.5126420087 -1.22689354368 0)
(-12.764220794 -0.973521727505 0)
(-12.9986965585 -0.722073715478 0)
(-13.2159515733 -0.469035313731 0)
(-13.4159572876 -0.211138696574 0)
(-13.5987789937 0.0547066259771 0)
(-13.764573395 0.331478709465 0)
(-13.9135834245 0.622107846344 0)
(-14.0461329795 0.929541046466 0)
(-14.1626226719 1.25681481216 0)
(-14.263526661 1.60712508295 0)
(-14.3493936315 1.98393795261 0)
(-14.4208448921 2.39103171054 0)
(-14.4786263393 2.8328042996 0)
(-14.5235994594 3.31389342451 0)
(-14.5571193812 3.84087076908 0)
(-14.5788172987 4.40625648509 0)
(-14.5741234384 4.88790603069 0)
(-14.5390710775 5.2746482262 0)
(-14.4741409452 5.55967089573 0)
(-14.3811725846 5.74111327624 0)
(-14.2622051161 5.82171736074 0)
(-14.1189756235 5.80904917348 0)
(-13.9533936104 5.71436134923 0)
(-13.7678686087 5.55105607808 0)
(-13.5651447079 5.3335578475 0)
(-13.3480567569 5.07648494289 0)
(-13.119406915 4.79392396134 0)
(-12.8818877699 4.49881346922 0)
(-12.6379839664 4.20249193373 0)
(-12.3898575959 3.91442289743 0)
(-12.1392407192 3.64207710105 0)
(-11.8873462774 3.39094757764 0)
(-11.6348020739 3.16467187049 0)
(-11.3816142677 2.96523746421 0)
(-11.1271689531 2.79324401085 0)
(-10.8702801001 2.64820055404 0)
(-10.6092892657 2.52883642023 0)
(-10.3422179999 2.43341009612 0)
(-10.0669666776 2.36000010524 0)
(-9.78154433073 2.30676570387 0)
(-9.48430338328 2.2721626683 0)
(-9.17414315701 2.25510402044 0)
(-8.85064156573 2.25505244543 0)
(-8.51407248061 2.27204062313 0)
(-8.16528496276 2.30661332011 0)
(-7.80541868888 2.35970236416 0)
(-7.43551232557 2.43242777532 0)
(-7.05594096704 2.52587594551 0)
(-6.66603285956 2.64076430925 0)
(-6.26321254752 2.7771620413 0)
(-5.84378689367 2.9338405672 0)
(-5.39996528111 3.10828428961 0)
(-4.92864557737 3.29432077586 0)
(-4.4091766559 3.48625677565 0)
(-3.87195790054 3.66515730605 0)
(-3.21022546612 3.84050878734 0)
(-2.74773390533 3.93592583849 0)
(-1.56797564667 4.17006493604 0)
(-2.86956654102 3.98393211134 0)
(4.52398077506 6.88024977929 0)
(-9.26084167584 6.60355014248 0)
(31.0609897109 -17.2008542075 0)
(-11.0188001176 -3.57753492195 0)
(-1.96537339454 -7.836150445 0)
(-3.65581818251 -8.41530696974 0)
(-5.93105104255 -7.91063836363 0)
(-6.90925051455 -7.30115667557 0)
(-7.48652998226 -6.62486780062 0)
(-7.97727935932 -5.9401543148 0)
(-8.39847070619 -5.30753351155 0)
(-8.76671142718 -4.74622872155 0)
(-9.10838690944 -4.2541299163 1.50718178181e-27)
(-9.43887354119 -3.82402770283 -1.48697224512e-27)
(-9.76340127872 -3.44799042664 0)
(-10.0826244998 -3.11829471616 0)
(-10.3954418002 -2.82800943067 0)
(-10.699974781 -2.57131453077 0)
(-10.9940319799 -2.3435133448 0)
(-11.2754241243 -2.1408966585 0)
(-11.5421549038 -1.96058264079 0)
(-11.7925055728 -1.80037610698 0)
(-12.0250528663 -1.65865186272 0)
(-12.238653856 -1.53426168285 0)
(-12.4324170768 -1.4264625176 0)
(-12.6056697063 -1.33486461571 0)
(-12.7579253021 -1.25939571953 0)
(-12.8888547316 -1.20027981341 0)
(-12.9982605072 -1.15802681554 0)
(-13.0860559238 -1.13343498666 0)
(-13.1522464121 -1.12759894322 0)
(-13.1969145473 -1.14194090629 0)
(-13.220210645 -1.17822118975 0)
(-13.2222982613 -1.23865600636 3.28989009469e-27)
(-13.2034278693 -1.32583581847 -3.31847255184e-27)
(-13.1635449439 -1.44331161771 0)
(-13.1051581652 -1.57202814532 0)
(-13.0390969739 -1.65695752261 0)
(-12.9673640339 -1.69063956462 0)
(-12.8905162773 -1.66951323808 0)
(-12.8089761251 -1.5941570895 0)
(-12.7226486398 -1.46882438438 0)
(-12.6306270874 -1.30026324073 0)
(-12.5314881601 -1.09667025521 0)
(-12.423708103 -0.866981653971 0)
(-12.3058248362 -0.620209979806 0)
(-12.1764556327 -0.364789598671 0)
(-12.0343418814 -0.108062495265 0)
(-11.8784320223 0.144034171954 0)
(-11.707952938 0.38709822123 0)
(-11.5224499501 0.618242261713 0)
(-11.3217996759 0.835952055448 0)
(-11.10619924 1.03985287076 0)
(-10.8761306922 1.23042038831 0)
(-10.6323003771 1.40867129614 0)
(-10.3755571884 1.57586753461 0)
(-10.1067974056 1.73326068475 0)
(-9.82686737274 1.88189931673 0)
(-9.53647809218 2.02251341375 0)
(-9.23614801938 2.15548461177 0)
(-8.92618884438 2.28090236091 0)
(-8.60674461122 2.39869708631 0)
(-8.27788260812 2.50883434646 0)
(-7.93972293794 2.6115419825 0)
(-7.59257173633 2.70754205026 0)
(-7.23702290139 2.79824667922 0)
(-6.87395744255 2.88589755589 0)
(-6.50445608394 2.97358240441 0)
(-6.1294591132 3.06520243246 0)
(-5.74955077484 3.16518408957 0)
(-5.36398926301 3.27820175828 0)
(-4.97156520714 3.40839204373 0)
(-4.56657747293 3.55917090093 0)
(-4.14916616232 3.73019853602 0)
(-3.69666308841 3.92123855451 0)
(-3.24813908845 4.11557644973 0)
(-2.66733466992 4.32463285771 0)
(-2.35338203966 4.45739828108 0)
(-1.1426986673 4.74708007209 0)
(-3.06157691731 4.52168694486 0)
(5.79396927294 7.66136336646 0)
(-11.2781594975 6.82879493527 0)
(41.2021990025 -16.727231975 0)
(-16.587049717 -5.22855279748 0)
(-1.59002396404 -10.4492692306 0)
(-4.1469376838 -9.89182418583 0)
(-6.14365481411 -8.86288820754 0)
(-6.70695152733 -7.9745960007 0)
(-7.05933957406 -7.12037827136 0)
(-7.40887519387 -6.3411209293 0)
(-7.73149734246 -5.66587263501 0)
(-8.03792393796 -5.08614046269 0)
(-8.3461222495 -4.58483368814 0)
(-8.66252481008 -4.14724443622 0)
(-8.98626857327 -3.76131505984 0)
(-9.31412207573 -3.41701114781 0)
(-9.64225776395 -3.10617919711 0)
(-9.96678043203 -2.82236794483 0)
(-10.2840103917 -2.56051726712 0)
(-10.5906667003 -2.31663382763 0)
(-10.8839493247 -2.0875227685 0)
(-11.1615467626 -1.87058164521 0)
(-11.4216034776 -1.66364502757 0)
(-11.6626705824 -1.46486771733 0)
(-11.8836527747 -1.27263807107 0)
(-12.0837580875 -1.08551298715 0)
(-12.262453433 -0.902168418846 0)
(-12.4194275853 -0.72135878865 0)
(-12.5545600438 -0.54188206789 0)
(-12.6679001968 -0.362545083485 0)
(-12.7596416338 -0.182129160183 0)
(-12.8301319419 0.000650474863554 0)
(-12.8798010265 0.187192136607 0)
(-12.909333844 0.379059628646 0)
(-12.9191806221 0.578122007644 0)
(-12.9108305255 0.786476857667 0)
(-12.8825472943 0.988820579836 0)
(-12.8322149913 1.16410974929 0)
(-12.759561409 1.30928081139 0)
(-12.6656927585 1.42395966051 0)
(-12.5523559895 1.51000525491 0)
(-12.4214947239 1.5708842538 0)
(-12.274981072 1.61126869797 0)
(-12.1145802322 1.63660454805 0)
(-11.9420099173 1.65251626357 0)
(-11.7589090115 1.66424093723 0)
(-11.5667222767 1.67625130803 2.974931071e-27)
(-11.3665997732 1.69206562988 -2.99211861651e-27)
(-11.1593501146 1.71419647041 0)
(-10.9454315708 1.74420810622 0)
(-10.7249664327 1.78285794538 0)
(-10.4977784823 1.83028728401 0)
(-10.263454493 1.8862245823 0)
(-10.0214241256 1.95016950748 0)
(-9.77104838377 2.02153656498 0)
(-9.51170551206 2.099745882 0)
(-9.24286363495 2.18425867032 0)
(-8.96413085559 2.27456305001 0)
(-8.67527702484 2.37012433816 0)
(-8.37622799116 2.47031861936 0)
(-8.06703921038 2.57437812382 0)
(-7.74786521422 2.68136806781 0)
(-7.41894029524 2.79022659074 0)
(-7.08059150083 2.89987040994 0)
(-6.73328203388 3.00938311282 0)
(-6.37768954277 3.11824729431 0)
(-6.01475250472 3.2266344289 0)
(-5.64572317892 3.33559457579 0)
(-5.27197852574 3.4473216897 0)
(-4.89502122458 3.56501663453 0)
(-4.51555825124 3.69279692435 0)
(-4.13466422683 3.83491436351 0)
(-3.74893681327 3.99559423708 0)
(-3.36299460536 4.1754993949 0)
(-2.95404872694 4.37560304204 0)
(-2.57468860151 4.57861577093 0)
(-2.06047201314 4.79753743357 0)
(-1.90173095911 4.929690382 0)
(-0.65274478543 5.22995553515 0)
(-3.31321439839 4.91169507427 0)
(7.20790190754 8.2988118916 0)
(-13.4574147079 6.95689728894 0)
(52.1939186193 -16.4107332385 0)
(-23.1112258935 -7.57249272141 0)
(-0.521931159329 -12.8998245653 0)
(-4.42701485115 -10.9494279976 0)
(-5.9798789374 -9.51213954715 0)
(-6.21765271979 -8.4186433646 0)
(-6.46120079688 -7.45249758863 0)
(-6.75223609542 -6.63423795635 0)
(-7.04032350103 -5.95574881398 0)
(-7.33467535459 -5.38607447853 0)
(-7.64588880754 -4.89876574726 0)
(-7.9739654762 -4.47480361037 0)
(-8.31450843667 -4.099905263 0)
(-8.66226419196 -3.76313990042 0)
(-9.01199502585 -3.45630938068 0)
(-9.35875493966 -3.17338937995 0)
(-9.69808648536 -2.90998700969 0)
(-10.0261291435 -2.66289317558 0)
(-10.3396394713 -2.42974688603 0)
(-10.6359571859 -2.20879357787 0)
(-10.9129461133 -1.99871495563 0)
(-11.1689269519 -1.79851254734 0)
(-11.4026111384 -1.60743034171 0)
(-11.6130406996 -1.42490533733 0)
(-11.7995363755 -1.25053703712 0)
(-11.9616541929 -1.0840692151 0)
(-12.0991503837 -0.925380591076 0)
(-12.2119532705 -0.7744787889 0)
(-12.3001413669 -0.631503394625 0)
(-12.3639286336 -0.49672057375 0)
(-12.4036492486 -0.370546364729 0)
(-12.4197727188 -0.25351409436 0)
(-12.412891557 -0.14636953522 3.69120232546e-27)
(-12.3840060094 -0.0498711236944 -3.74568545528e-27)
(-12.3346953092 0.0472549784619 0)
(-12.2677271535 0.152110735833 0)
(-12.1839360418 0.266205429217 0)
(-12.0840121789 0.389625046034 0)
(-11.968628426 0.52106369235 0)
(-11.8383451817 0.658196940461 0)
(-11.6935807853 0.798230542347 0)
(-11.5346858553 0.938435490669 0)
(-11.3620656539 1.07650683915 0)
(-11.1762587711 1.21074873027 0)
(-10.977942944 1.34015060202 0)
(-10.7679026417 1.46437871342 0)
(-10.5469874275 1.58368577505 0)
(-10.3160626736 1.69876025538 0)
(-10.0759497759 1.8105509175 0)
(-9.82736331369 1.92009883666 0)
(-9.57085773418 2.02839765623 0)
(-9.30679408012 2.13629372145 0)
(-9.03533291671 2.24442950569 0)
(-8.75645533885 2.35322805203 0)
(-8.4700092123 2.46290909169 0)
(-8.17577274842 2.57352535956 0)
(-7.87352275322 2.68500570038 0)
(-7.56309610995 2.79718831068 0)
(-7.24443019126 2.90985056868 0)
(-6.91758346654 3.02271660355 0)
(-6.58273115267 3.1354835223 0)
(-6.24016362535 3.24784676541 0)
(-5.89028577121 3.35959878426 0)
(-5.53366123778 3.47074654112 0)
(-5.17104802708 3.58179337841 0)
(-4.80350739687 3.69383255531 0)
(-4.43230327553 3.80907555358 0)
(-4.05905573941 3.930636134 0)
(-3.68499060217 4.06273007535 0)
(-3.31253554783 4.20971467633 0)
(-2.93969724915 4.37610562031 0)
(-2.57529856038 4.56252965431 0)
(-2.19643828353 4.76944558257 0)
(-1.87196843638 4.97732890319 0)
(-1.40894582561 5.19886545275 0)
(-1.40279490375 5.31829261404 0)
(-0.0907188404865 5.61113609596 0)
(-3.61506425181 5.173789632 0)
(8.83265708469 8.82751535341 0)
(-15.8034508896 7.010086866 0)
(64.0253746465 -16.2005451289 0)
(-30.5283083932 -10.3164791717 0)
(1.37177119332 -14.9319738195 0)
(-4.58205880608 -11.5989843323 0)
(-5.55264335606 -9.96664614007 0)
(-5.60505311505 -8.75164048436 0)
(-5.83282925147 -7.7334797286 0)
(-6.115878967 -6.91416563982 0)
(-6.40541534604 -6.25196395075 0)
(-6.71298794222 -5.70195541728 0)
(-7.04377934324 -5.23288109359 0)
(-7.39412503122 -4.82316425108 0)
(-7.75804301799 -4.45710509108 0)
(-8.12940600917 -4.12329811941 0)
(-8.50233936384 -3.81366757777 0)
(-8.87143892253 -3.5226099767 0)
(-9.23194124112 -3.24627426411 0)
(-9.57979031654 -2.98201417142 0)
(-9.91162253457 -2.72799294723 0)
(-10.224709347 -2.48290691277 0)
(-10.5168832084 -2.24579844488 0)
(-10.7864603622 -2.0159338356 0)
(-11.0321681492 -1.79272667129 0)
(-11.2530805669 -1.57569117775 0)
(-11.4485639352 -1.36441478194 0)
(-11.618231794 -1.15854077228 0)
(-11.7619094936 -0.957758233529 0)
(-11.8796055627 -0.761789520203 0)
(-11.9714896679 -0.570388943099 0)
(-12.0378845045 -0.383312277885 0)
(-12.0792288376 -0.20035322831 0)
(-12.0961823903 -0.0212073119379 0)
(-12.0892941043 0.154226824781 0)
(-12.059985388 0.32656453987 0)
(-12.0070339563 0.490006792264 0)
(-11.9314064339 0.642873033341 0)
(-11.8339570724 0.785138530061 0)
(-11.7159080626 0.917591097705 0)
(-11.5786912614 1.04153676656 0)
(-11.4238095555 1.15852649655 0)
(-11.2527258925 1.27014731991 0)
(-11.0668062519 1.37787567482 0)
(-10.8673120618 1.4829707648 0)
(-10.6554062029 1.58641415459 0)
(-10.432148214 1.6889172347 0)
(-10.1984853268 1.79098877484 0)
(-9.95525215095 1.89302738798 0)
(-9.70317766297 1.99540451806 0)
(-9.442890666 2.09851852788 0)
(-9.17491869291 2.20281196085 0)
(-8.89968133839 2.30875231354 0)
(-8.61748170165 2.41678340304 0)
(-8.32850119403 2.52725997927 0)
(-8.03280294311 2.64038369495 0)
(-7.7303487632 2.75615369314 0)
(-7.42103185523 2.87434561995 0)
(-7.10472096822 2.99452641002 0)
(-6.78131596188 3.11608353153 0)
(-6.45079444015 3.23830477959 0)
(-6.11325720908 3.3604257884 0)
(-5.76893740734 3.48173637186 0)
(-5.41820742521 3.60161771792 0)
(-5.06156780789 3.71968073556 0)
(-4.69965125447 3.83577338486 0)
(-4.33323860856 3.95039291226 0)
(-3.963325726 4.06449774322 0)
(-3.59116492357 4.18039264319 0)
(-3.2183010018 4.30111245618 0)
(-2.84612568193 4.43108257956 0)
(-2.47798141628 4.57460891789 0)
(-2.11262154886 4.73668571882 0)
(-1.76295446846 4.91770817633 0)
(-1.40620464143 5.11637873893 0)
(-1.12961439865 5.31034642927 0)
(-0.709195923702 5.51228080381 0)
(-0.856685518608 5.60010421414 0)
(0.536995624027 5.85153720143 0)
(-3.99116043347 5.30825817072 0)
(10.7626198816 9.24997919985 0)
(-18.3359089391 6.96628755601 0)
(76.5459965732 -16.1493866223 0)
(-38.7437083914 -13.3033781556 0)
(4.12177533689 -16.4571013406 0)
(-4.77699692477 -11.9405706056 0)
(-4.98726703902 -10.3191565817 0)
(-4.99848918879 -9.02834020778 0)
(-5.25458526369 -7.99524870531 0)
(-5.54603556509 -7.19428091861 0)
(-5.84893072477 -6.557053929 0)
(-6.17624335162 -6.03161607757 0)
(-6.52892679384 -5.58396653217 0)
(-6.90131588903 -5.1906068382 0)
(-7.28664624504 -4.83488727587 0)
(-7.67827902324 -4.5053035627 0)
(-8.06996480044 -4.19419012244 0)
(-8.45607306492 -3.8966030914 0)
(-8.83173476381 -3.60944819803 0)
(-9.19286846672 -3.33084498682 0)
(-9.53613397995 -3.05968107609 0)
(-9.85885399086 -2.79531124182 0)
(-10.1589260815 -2.53736345466 0)
(-10.4347366424 -2.28562083501 0)
(-10.6850828127 -2.03995472207 0)
(-10.9091047991 -1.80029051725 0)
(-11.1062300054 -1.56659316403 0)
(-11.2761258538 -1.33886289713 0)
(-11.4186658613 -1.11713775131 0)
(-11.5338933368 -0.901492898541 0)
(-11.6220160171 -0.692055198365 0)
(-11.6833466716 -0.488976903009 0)
(-11.7183925447 -0.292520761868 0)
(-11.7275939652 -0.10284913012 0)
(-11.7119792673 0.0793641459821 0)
(-11.671758147 0.254920551573 0)
(-11.6083592101 0.426717740282 0)
(-11.5225140631 0.59507512375 0)
(-11.4150276216 0.759976270711 0)
(-11.2868125635 0.921084736496 0)
(-11.1388699801 1.07785524426 0)
(-10.9722680681 1.22968691432 0)
(-10.7881282315 1.37608530438 0)
(-10.5876199382 1.51679023841 0)
(-10.371962664 1.65183518028 0)
(-10.1424206006 1.7815366924 0)
(-9.90027718846 1.90644277875 0)
(-9.64679322241 2.02727081367 0)
(-9.38316166461 2.14485028949 0)
(-9.11046819349 2.26007455469 0)
(-8.829659852 2.37386158833 0)
(-8.54152260924 2.48712055925 0)
(-8.24666915655 2.60071852562 0)
(-7.94553749456 2.71544160862 0)
(-7.63840113141 2.83194562718 0)
(-7.32538893103 2.95070652791 0)
(-7.00651487072 3.07196983117 0)
(-6.68171562772 3.19571616851 0)
(-6.35088828876 3.32166625951 0)
(-6.01394443685 3.44926323355 0)
(-5.67084314847 3.57778031224 0)
(-5.32165118797 3.7063267454 0)
(-4.96656093722 3.83403671501 0)
(-4.60589895733 3.96004303058 0)