/*--------------------------------*- C++ -*----------------------------------*\
| =========                 |                                                 |
| \\      /  F ield         | OpenFOAM: The Open Source CFD Toolbox           |
|  \\    /   O peration     | Version:  v1806                                 |
|   \\  /    A nd           | Web:      www.OpenFOAM.com                      |
|    \\/     M anipulation  |                                                 |
\*---------------------------------------------------------------------------*/
FoamFile
{
    version     2.0;
    format      ascii;
    class       volVectorField;
    location    "500";
    object      Ua;
}
// * * * * * * * * * * * * * * * * * * * * * * * * * * * * * * * * * * * * * //

dimensions      [0 1 -1 0 0 0 0];


internalField   nonuniform List<vector> 
6400
(
(-0.696969891181 -0.302300335159 0)
(-1.39922160603 0.355052594272 0)
(-2.39307493784 1.36068567075 0)
(-3.38885862337 1.36813132288 0)
(-4.26783937901 0.921017234356 0)
(-5.46101463769 -2.74057583954 0)
(-6.22051931357 -4.18475715158 0)
(-6.83026487338 -5.75676140434 0)
(-7.33628428713 -7.49548615934 0)
(-7.74130607019 -9.34545389062 0)
(-8.06365831196 -11.2668176608 0)
(-8.32428995937 -13.2360129026 0)
(-8.53794566134 -15.2384018781 0)
(-8.71379616443 -17.2633115293 0)
(-8.85824092263 -19.3022266883 0)
(-8.97645636954 -21.3483581096 0)
(-9.07280023428 -23.3964282854 0)
(-9.15087156293 -25.4424157574 0)
(-9.21359138014 -27.4833141135 0)
(-9.26332461082 -29.5169558186 0)
(-9.30199343846 -31.541891708 0)
(-9.3311643716 -33.5573037134 0)
(-9.35211487247 -35.5629382826 0)
(-9.36588775254 -37.5590543422 0)
(-9.37333651406 -39.5463863885 0)
(-9.37516310988 -41.5261187311 0)
(-9.37194874345 -43.499872899 0)
(-9.36417928052 -45.4697041957 0)
(-9.35226642647 -47.4381109538 0)
(-9.33656615479 -49.4080570633 0)
(-9.31739908467 -51.3830057284 0)
(-9.29508159559 -53.3670173038 0)
(-9.2700051278 -55.3648745618 0)
(-9.24274455566 -57.3826806747 0)
(-9.21390412884 -59.4274272417 0)
(-9.18181309254 -61.5050420931 0)
(-9.13609892906 -63.5983517718 0)
(-9.06530664956 -65.6596927017 0)
(-8.97488844247 -67.5559228591 0)
(-8.87251109829 -69.2295243013 0)
(-8.76358211111 -70.6674218886 0)
(-8.65097673031 -71.8616571918 0)
(-8.53588455665 -72.8066496131 0)
(-8.41890506122 -73.4984201115 0)
(-8.30054651666 -73.9344741173 0)
(-8.18130131032 -74.1137631815 0)
(-8.06162797342 -74.0366343348 0)
(-7.94196395589 -73.7048133784 0)
(-7.82275724747 -73.1214407495 0)
(-7.70449129991 -72.2911450397 0)
(-7.58769987209 -71.2201386478 0)
(-7.47297676747 -69.9163286964 0)
(-7.36098351899 -68.3894382914 0)
(-7.25245341674 -66.6511305632 0)
(-7.1481897462 -64.7151215036 0)
(-7.04905535989 -62.5972632973 0)
(-6.95595192877 -60.3155746811 0)
(-6.86978705544 -57.8901926642 0)
(-6.79142895375 -55.3432192854 0)
(-6.72164914258 -52.6984398959 0)
(-6.6610554747 -49.9808965059 0)
(-6.61001916713 -47.2163089688 0)
(-6.56860030781 -44.4303504506 0)
(-6.53647813096 -41.6477963751 0)
(-6.51288805173 -38.8915780931 0)
(-6.49657636227 -36.1817860659 0)
(-6.48575432311 -33.5346573986 0)
(-6.47810115013 -30.9616267504 0)
(-6.47068174755 -28.4683980673 0)
(-6.46011946255 -26.0543146325 0)
(-6.44214669582 -23.7114738548 0)
(-6.41284379055 -21.4253318069 0)
(-6.36567234206 -19.1726689527 0)
(-6.29995708034 -16.9290721135 0)
(-6.19988517666 -14.6544457801 0)
(-6.09081501192 -12.3405893049 0)
(-5.877964471 -9.8757235105 0)
(-5.74531680377 -7.37374757324 0)
(-4.68564012054 -3.89033359907 0)
(-3.88495900822 -0.338290403836 0)
(-0.970861669307 -1.34895469939 0)
(-1.35317501181 -1.06004655972 0)
(-2.87972860478 -2.05898238972 0)
(-4.02062921585 -3.24637134914 0)
(-5.19635442706 -2.7120049717 0)
(-6.23740496052 -1.35460360605 0)
(-7.0827828727 -0.101823345486 0)
(-7.91110206765 1.07998431951 0)
(-8.73171122154 2.2451643944 0)
(-9.51284390886 3.42189406465 0)
(-10.2391783986 4.62353994934 0)
(-10.9090481546 5.85565362386 0)
(-11.5244745946 7.11981001668 0)
(-12.0877420422 8.41565999478 0)
(-12.6014182063 9.74197026265 0)
(-13.0685849832 11.0971094351 0)
(-13.4926394729 12.4792908205 0)
(-13.8769916006 13.8867140984 0)
(-14.2248798911 15.3176652263 0)
(-14.5393014217 16.7705849782 0)
(-14.8229956059 18.2441237374 0)
(-15.0784447165 19.7371830566 0)
(-15.3078824411 21.2489547781 0)
(-15.5133075783 22.7789529206 0)
(-15.6965015683 24.3270458967 0)
(-15.8590468194 25.8934844093 0)
(-16.0023444629 27.47893185 0)
(-16.1276315146 29.0844945371 0)
(-16.2359943337 30.7117551584 0)
(-16.3283890954 32.3628177159 0)
(-16.4056348517 34.0403376811 0)
(-16.4684715761 35.7476237584 0)
(-16.5173765583 37.4885478519 0)
(-16.5531840066 39.2679635235 0)
(-16.576868551 41.0902618336 0)
(-16.599598734 42.9610254683 0)
(-16.6387764486 44.8297983929 0)
(-16.6853585633 46.5883157473 0)
(-16.7186080216 48.1508815132 0)
(-16.7277810506 49.4868640735 0)
(-16.7112045205 50.5953142367 0)
(-16.668961405 51.474791702 0)
(-16.6006315856 52.1245848208 0)
(-16.5053769501 52.5451693705 0)
(-16.3822612445 52.7382424778 0)
(-16.2303269038 52.7067381424 0)
(-16.0485676392 52.4548828572 0)
(-15.8359184997 51.9882585857 0)
(-15.5912770701 51.3138460488 0)
(-15.3135379248 50.4400663191 0)
(-15.001631163 49.3768207986 0)
(-14.6545675528 48.1355392014 0)
(-14.2714946907 46.7292182713 0)
(-13.8517667039 45.1724477028 0)
(-13.3950286439 43.4813969979 0)
(-12.9013144944 41.6737524411 0)
(-12.3711566506 39.7685744743 0)
(-11.8057009384 37.7860654764 0)
(-11.206819333 35.7472264912 0)
(-10.5772085389 33.673406918 0)
(-9.92046174713 31.5857463508 0)
(-9.24109961986 29.5045356222 0)
(-8.54454867318 27.4485203328 0)
(-7.83705975345 25.4341934697 0)
(-7.12556226355 23.4751141665 0)
(-6.41746634342 21.5813024432 0)
(-5.72040617483 19.7587470876 0)
(-5.04199332741 18.0090629934 0)
(-4.38946331116 16.3293561562 0)
(-3.76960402007 14.7122658581 0)
(-3.18797560248 13.1465358354 0)
(-2.65016190905 11.6174730004 0)
(-2.15764448785 10.1097388525 0)
(-1.71877778806 8.6063412544 0)
(-1.31801705032 7.1056701726 0)
(-1.00493260334 5.59501880767 0)
(-0.638691179556 4.18217587345 0)
(-0.693779808637 2.79978005172 0)
(0.573732843863 2.96347601657 0)
(-1.71901868248 3.7849116489 0)
(-2.41922495475 -2.99321927923 0)
(-3.63726267633 -3.62809052022 0)
(-4.04808296721 -2.70219661947 6.05496576558e-29)
(-3.99471156027 -2.1112257183 -3.79215130007e-29)
(-4.0829193033 -1.68110785907 -1.40465242875e-30)
(-4.31137613387 -1.59317533843 1.14245347775e-30)
(-4.67809208642 -1.6630652069 3.20995646544e-29)
(-5.14554202397 -1.79444830762 -2.84494997612e-29)
(-5.65076959136 -1.96219223801 0)
(-6.14221388321 -2.16503292071 0)
(-6.5941276321 -2.40633160454 0)
(-6.99831239581 -2.69016271253 0)
(-7.35393689981 -3.02036583277 0)
(-7.66282210451 -3.39980005435 0)
(-7.9280538037 -3.83004465816 0)
(-8.15341958212 -4.31156120822 0)
(-8.34292939428 -4.8440094348 0)
(-8.50045765563 -5.42652014182 0)
(-8.62955914345 -6.05789450357 0)
(-8.73340996356 -6.73675719282 0)
(-8.81480702193 -7.46168006906 0)
(-8.87618888167 -8.23128510633 0)
(-8.91966427426 -9.04432731926 0)
(-8.94704406276 -9.89976512372 0)
(-8.95987398323 -10.7968191654 0)
(-8.95946590922 -11.7350271728 0)
(-8.94692761724 -12.7142941332 0)
(-8.92318728467 -13.7349440769 0)
(-8.88902293258 -14.7977742639 0)
(-8.84506838361 -15.9041127621 -1.1429491318e-27)
(-8.79187869587 -17.0559012597 1.14175115645e-27)
(-8.72981928001 -18.2557386547 0)
(-8.65939181916 -19.5070949975 0)
(-8.57982914729 -20.8140268422 0)
(-8.4901506697 -22.1823975825 0)
(-8.37632221785 -23.6169858869 0)
(-8.24306353289 -24.9604206461 0)
(-8.11731177043 -26.1138502612 0)
(-8.008130906 -27.0820994184 0)
(-7.91480898821 -27.862446967 0)
(-7.83499710348 -28.4525211545 0)
(-7.76797371793 -28.8528592997 0)
(-7.71394320617 -29.0662809935 0)
(-7.67323136749 -29.0972683649 0)
(-7.64609351369 -28.9518342281 0)
(-7.63270391892 -28.6374969226 0)
(-7.6331064422 -28.1631963323 0)
(-7.64713472821 -27.5391714857 0)
(-7.67433808482 -26.7768461681 0)
(-7.71391774489 -25.8887287111 0)
(-7.76466618057 -24.8883233948 0)
(-7.8249065888 -23.7900396089 0)
(-7.89243459652 -22.6090924698 0)
(-7.96446683681 -21.3613768812 0)
(-8.03760157992 -20.0633032258 0)
(-8.10779882877 -18.7315751413 0)
(-8.17038813166 -17.3829020149 0)
(-8.22011411531 -16.0336392268 0)
(-8.25122832838 -14.6993665986 0)
(-8.25763444807 -13.3944209902 0)
(-8.23308832702 -12.1314158702 0)
(-8.17144878111 -10.9207836711 0)
(-8.06696562269 -9.77038497451 0)
(-7.91458601531 -8.68522282299 0)
(-7.7102483554 -7.66729607536 0)
(-7.45114412232 -6.7156165276 0)
(-7.13589289229 -5.82639775538 0)
(-6.76468213075 -4.99345091871 0)
(-6.33916527692 -4.20875219066 0)
(-5.86263798843 -3.46336028913 0)
(-5.33907691321 -2.74838627079 0)
(-4.77491634857 -2.05727790029 0)
(-4.17278341531 -1.38631386956 0)
(-3.54712049356 -0.742820580746 0)
(-2.87753928312 -0.133176897162 0)
(-2.24487601795 0.391357297838 0)
(-1.4373656989 0.889764945188 0)
(-1.24119789747 1.15274730551 0)
(1.14971983809 2.77782649986 0)
(-2.44112368503 3.969271476 0)
(-1.34510983589 -6.38757574334 0)
(-4.28118267384 -1.85546036298 0)
(-3.0084939037 -1.39972827532 0)
(-2.4973554545 -2.0478185587 0)
(-2.95140431671 -2.40148068996 0)
(-3.60541093321 -2.50979344334 0)
(-4.26986965767 -2.47491137548 0)
(-4.92540786189 -2.32990566052 0)
(-5.54253945573 -2.10901473862 0)
(-6.09947586796 -1.84409889681 0)
(-6.59312785836 -1.55528325922 0)
(-7.02989394798 -1.25311861938 0)
(-7.41783217569 -0.942566444743 0)
(-7.76418753486 -0.625166135633 0)
(-8.07515593399 -0.300234825312 0)
(-8.35597644139 0.0342072309033 0)
(-8.6109926162 0.380739538074 0)
(-8.84373482014 0.742104902402 0)
(-9.05704222016 1.12097492292 0)
(-9.25319612007 1.51983814385 0)
(-9.43403955926 1.94095837472 0)
(-9.60107416073 2.38637713686 0)
(-9.75553602745 2.85794430681 0)
(-9.89845480558 3.35736692291 0)
(-10.0306998929 3.88626806054 0)
(-10.1530163532 4.44625175219 0)
(-10.2660530294 5.03897190621 0)
(-10.3703835098 5.66620264494 0)
(-10.4665241573 6.32991759032 0)
(-10.5549397911 7.03235571002 0)
(-10.6360657597 7.7761439085 0)
(-10.7102559446 8.56427739647 0)
(-10.777972176 9.40054752349 0)
(-10.8396173155 10.2887784823 0)
(-10.8979868634 11.235898638 0)
(-10.9548776471 12.2150190574 0)
(-10.989223373 13.0616565838 0)
(-10.9951041548 13.7726684162 0)
(-10.977370051 14.3411399434 0)
(-10.9379789039 14.7632077729 0)
(-10.8758123186 15.0396483333 0)
(-10.7900839359 15.1743376103 0)
(-10.6810109214 15.1733740839 0)
(-10.5492211656 15.0448253725 0)
(-10.3954516097 14.7984697268 0)
(-10.2205928627 14.4454468485 2.38473616175e-27)
(-10.0257820005 13.9979141738 -2.40484960941e-27)
(-9.81244544463 13.4687434546 0)
(-9.58231631848 12.8712466821 0)
(-9.33744832966 12.2189221233 0)
(-9.0802231638 11.5252200927 0)
(-8.81334184647 10.8033266697 0)
(-8.53979330364 10.0659602026 0)
(-8.2627950963 9.32517197751 0)
(-7.98570177263 8.59214469358 0)
(-7.71187653794 7.87698483307 0)
(-7.44452500567 7.18851239685 0)
(-7.18649369347 6.53405740497 1.46180895948e-27)
(-6.94004268457 5.91928127187 -1.49759094226e-27)
(-6.70660826288 5.34804518767 0)
(-6.48657868674 4.82235092508 0)
(-6.27911085295 4.34237519114 0)
(-6.08201663526 3.90661272329 0)
(-5.89174604985 3.51213109398 0)
(-5.70347960186 3.15493010487 0)
(-5.51134682514 2.83038625281 0)
(-5.3087266226 2.53376479818 0)
(-5.08870212043 2.26075957228 0)
(-4.8443821044 2.00811492899 0)
(-4.56976781593 1.77413060202 0)
(-4.25920199833 1.55955980557 0)
(-3.91069692182 1.36751801325 0)
(-3.51826735193 1.20612144643 0)
(-3.09476712299 1.0824312522 0)
(-2.6067995462 1.01962454673 0)
(-2.16616232961 1.00100339412 0)
(-1.463501787 1.13821643129 0)
(-1.59849454029 1.19296420081 0)
(1.41040394389 2.88087117458 0)
(-3.37896279835 3.77420839169 0)
(7.7805623499 -10.9266191313 0)
(-2.78464874135 -1.85640729587 0)
(-1.34871608262 -2.19182511162 0)
(-1.64041316523 -3.03459743079 0)
(-2.82595542006 -3.25535988107 0)
(-3.75394342808 -3.2268667082 0)
(-4.44896888736 -3.08236288688 0)
(-5.03411144919 -2.86105518249 0)
(-5.53194690953 -2.60629460257 0)
(-5.94920772779 -2.35280806904 0)
(-6.30140038491 -2.11942776728 0)
(-6.60418340894 -1.91456107481 0)
(-6.86880944366 -1.74146594074 0)
(-7.10282646893 -1.60079141226 0)
(-7.31143077358 -1.49182228021 0)
(-7.49825306696 -1.4132675919 0)
(-7.66581931894 -1.36375382737 0)
(-7.81589051639 -1.3420770653 0)
(-7.94971970087 -1.34729888645 0)
(-8.06823290316 -1.37876510117 0)
(-8.17214884135 -1.43609145909 0)
(-8.26205506491 -1.51913930512 0)
(-8.33845436276 -1.62799002514 0)
(-8.40179176152 -1.76292557111 0)
(-8.4524689159 -1.9244167753 0)
(-8.49085110123 -2.11312251561 0)
(-8.51726853603 -2.32989899564 0)
(-8.53201748916 -2.57582012331 0)
(-8.53535151722 -2.85221040351 0)
(-8.52749500119 -3.16068444376 0)
(-8.50858503535 -3.50321447187 -1.59285767597e-27)
(-8.4788162332 -3.88216280168 1.5980583224e-27)
(-8.43795649216 -4.3004662981 0)
(-8.3864833832 -4.76150556152 0)
(-8.32139219323 -5.27018482553 0)
(-8.2482564898 -5.76619298676 0)
(-8.18060011934 -6.1767082841 0)
(-8.11964328993 -6.49085750601 0)
(-8.0664014817 -6.7040709437 0)
(-8.02140333299 -6.81723681673 0)
(-7.98364848609 -6.8334951326 0)
(-7.95169275452 -6.75777090588 0)
(-7.92432309865 -6.59704674473 0)
(-7.90037328691 -6.36012581848 0)
(-7.87846506124 -6.05710116784 0)
(-7.85696477231 -5.69884448852 0)
(-7.83402951818 -5.29656924536 0)
(-7.80764085488 -4.8614393486 0)
(-7.7756292016 -4.40422282112 0)
(-7.73571511887 -3.93500086186 0)
(-7.68557567511 -3.46294053099 0)
(-7.62293276283 -2.99612616433 0)
(-7.54565927208 -2.54144562791 0)
(-7.45189958685 -2.10452252353 0)
(-7.34019813327 -1.6896911868 0)
(-7.20962578815 -1.30000886493 0)
(-7.05988930484 -0.937306686033 0)
(-6.8914058067 -0.6022790156 0)
(-6.70532247083 -0.294615757304 0)
(-6.50346344536 -0.0131763893405 0)
(-6.28819126628 0.243795692531 0)
(-6.06218084755 0.47842986289 0)
(-5.82811634747 0.692969964367 0)
(-5.58833942086 0.889522629806 0)
(-5.34448160845 1.06983380992 0)
(-5.09714516798 1.23510894421 0)
(-4.84563418243 1.38589842617 0)
(-4.58790337766 1.52202076219 0)
(-4.32042041023 1.64259877109 0)
(-4.03888849544 1.7460082093 0)
(-3.73732854813 1.83030649031 0)
(-3.41256055559 1.89269264114 0)
(-3.05456824063 1.93261932732 0)
(-2.67794939223 1.94590068143 0)
(-2.23646524987 1.94736733729 0)
(-1.88045843627 1.91122357294 0)
(-1.19530680244 1.96736094209 0)
(-1.64826500092 1.84571849879 0)
(1.96948306934 3.44605217166 0)
(-4.32413636685 3.84956934582 0)
(13.2920304482 -10.0609468305 0)
(-4.12419983512 -1.56025333674 0)
(-1.11010468911 -3.34245890881 0)
(-1.86259852509 -4.1328577976 0)
(-3.28761975298 -4.14343181864 0)
(-4.11946625813 -3.9545289177 0)
(-4.65333702084 -3.66347394649 0)
(-5.08078403881 -3.31549310431 0)
(-5.43203733511 -2.95949954894 0)
(-5.72178477026 -2.62337642733 0)
(-5.97045001544 -2.31683572049 0)
(-6.19341721787 -2.04114518227 0)
(-6.39923843412 -1.79418710186 0)
(-6.59236435495 -1.57240255665 0)
(-6.77513166726 -1.37172942457 0)
(-6.94866833825 -1.18814132447 0)
(-7.1133828841 -1.01790915768 0)
(-7.26930131987 -0.857681372795 0)
(-7.41628920461 -0.704473525356 0)
(-7.55417934562 -0.555622075996 0)
(-7.6828372812 -0.408729732132 0)
(-7.80219044286 -0.261611756545 0)
(-7.91223694954 -0.112247496087 0)
(-8.01304320529 0.0412635434646 0)
(-8.10473631686 0.200740918896 0)
(-8.18749445906 0.367960366802 0)
(-8.26153827383 0.544689527736 0)
(-8.32712088506 0.732725349773 0)
(-8.38452679725 0.933933727253 0)
(-8.43404995585 1.15029684716 0)
(-8.47603678241 1.38396055785 0)
(-8.5107413331 1.63732135185 0)
(-8.5387227139 1.91303885935 0)
(-8.55970642715 2.21441387578 0)
(-8.57578069259 2.54483787563 0)
(-8.58075364367 2.85066289232 0)
(-8.56973263958 3.10461320481 0)
(-8.54149049933 3.30129611526 0)
(-8.49666269864 3.43816780126 0)
(-8.43648194235 3.51484739405 0)
(-8.36191865933 3.53370915252 0)
(-8.2738084409 3.4997704133 0)
(-8.17324570576 3.41987724173 0)
(-8.06162810768 3.30196246043 0)
(-7.9405053072 3.15452930931 0)
(-7.81147248902 2.98620906824 0)
(-7.67612260273 2.80533978836 0)
(-7.53599586647 2.61960272995 0)
(-7.39250860283 2.43574943413 0)
(-7.24687514946 2.25942231916 0)
(-7.10003522716 2.09506234211 0)
(-6.95259183953 1.94589366079 0)
(-6.80476438429 1.8139767499 0)
(-6.65636388208 1.70031761368 0)
(-6.50679843571 1.60502218799 0)
(-6.35511565404 1.52748283154 0)
(-6.20008594401 1.466586145 0)
(-6.04032535679 1.42092871667 0)
(-5.87444975184 1.38902839738 0)
(-5.70124326268 1.369515493 0)
(-5.5198157903 1.36128938241 0)
(-5.32971855062 1.3636262787 0)
(-5.13098567511 1.37622688482 0)
(-4.92407910609 1.3992008337 0)
(-4.70971941382 1.43298761143 0)
(-4.48863128753 1.47822311357 0)
(-4.2611759383 1.5355720565 0)
(-4.02707884373 1.60549427524 0)
(-3.78488390556 1.68805130822 0)
(-3.53237500847 1.78248453084 0)
(-3.26483781556 1.88716957171 0)
(-2.98018680372 1.99819940032 0)
(-2.66606675864 2.11177544406 0)
(-2.33995170816 2.21608025597 0)
(-1.93904415479 2.31565230379 0)
(-1.65330306415 2.36347487677 0)
(-0.943082182033 2.48496149831 0)
(-1.70273755359 2.34201439789 0)
(2.65572195604 4.01816102616 0)
(-5.39306490425 4.01712498693 0)
(18.9408892995 -10.0263646686 0)
(-6.79201221841 -2.2619794912 0)
(-1.20945429411 -4.90565394455 0)
(-2.31722631684 -5.21678596213 0)
(-3.68846387028 -4.88681249778 0)
(-4.26607653433 -4.48699971852 0)
(-4.59819799442 -4.04442886553 0)
(-4.87170225494 -3.60033655735 0)
(-5.09998371424 -3.19303368937 0)
(-5.29584421233 -2.83427967915 0)
(-5.47653074876 -2.52229736284 7.27903985735e-28)
(-5.65197177024 -2.25187784331 -7.18565979392e-28)
(-5.82564608837 -2.01733013039 0)
(-5.99802830391 -1.81322670374 0)
(-6.16836068361 -1.63478864452 0)
(-6.33532913165 -1.4780551134 0)
(-6.49741485938 -1.33986497595 0)
(-6.65312591485 -1.21775237735 0)
(-6.80112796637 -1.10982616026 0)
(-6.94029770222 -1.01466087008 0)
(-7.06973092159 -0.931205709519 0)
(-7.18872848086 -0.85871277229 0)
(-7.29677228242 -0.796681927497 0)
(-7.39349777006 -0.744820663473 0)
(-7.47866627274 -0.703015380952 0)
(-7.55213963003 -0.671313267223 0)
(-7.61385671276 -0.649911718172 0)
(-7.66381527665 -0.639157265252 0)
(-7.70205029912 -0.639547228263 0)
(-7.72863204155 -0.651750330988 0)
(-7.74361999005 -0.676599847096 0)
(-7.74714237666 -0.715189168173 1.76183094844e-27)
(-7.7391458261 -0.768686010569 -1.77571370418e-27)
(-7.72010298783 -0.838952511738 0)
(-7.68968928653 -0.925490549963 0)
(-7.65351394395 -0.991782285984 0)
(-7.61422088164 -1.03034057197 0)
(-7.57225760091 -1.03755155215 0)
(-7.52781390247 -1.01194629364 0)
(-7.48100858336 -0.954530643185 0)
(-7.43153232595 -0.868232545866 0)
(-7.37862154733 -0.757188907604 0)
(-7.32132645168 -0.62630153587 0)
(-7.25869597384 -0.480884908399 0)
(-7.18981061299 -0.326268095025 0)
(-7.113790573 -0.167412384869 0)
(-7.0298390438 -0.00862405974449 0)
(-6.9372979586 0.146622500105 0)
(-6.83569053484 0.295762839415 0)
(-6.7247466795 0.437134437825 0)
(-6.60441348606 0.569893744051 0)
(-6.47484968299 0.69387633348 0)
(-6.33640123838 0.809420723233 0)
(-6.18955775681 0.91717910738 0)
(-6.03489255314 1.0179352204 0)
(-5.87299281893 1.11244886173 0)
(-5.70438946613 1.20134185529 0)
(-5.52949913751 1.28503764059 0)
(-5.34859176815 1.36375976492 0)
(-5.16179471402 1.43758980379 0)
(-4.9691380638 1.50657500716 0)
(-4.77063469589 1.57087284122 0)
(-4.56637626708 1.63090478181 0)
(-4.35661599213 1.68750155066 0)
(-4.14179592054 1.74200148131 0)
(-3.92250912835 1.79628817082 0)
(-3.69930597935 1.85275944082 0)
(-3.47255222196 1.91414929713 0)
(-3.24182827548 1.9833569046 0)
(-3.00639121595 2.06292885386 0)
(-2.7628062444 2.15486668099 0)
(-2.51094201611 2.25878929181 0)
(-2.23728395186 2.37413243747 0)
(-1.96444486467 2.4902811867 0)
(-1.61210545207 2.61273305104 0)
(-1.41496283632 2.68550485306 0)
(-0.685845059493 2.84186369507 0)
(-1.8129073632 2.6748908273 0)
(3.40298654109 4.48312762581 0)
(-6.5840272283 4.13795853092 0)
(24.8954043131 -9.68552219944 0)
(-10.0735791956 -3.32822115622 0)
(-0.983004767443 -6.49256806535 0)
(-2.60509377336 -6.10208847473 0)
(-3.78975339816 -5.44656256436 0)
(-4.11447314643 -4.86750061571 0)
(-4.30713757316 -4.31167914516 0)
(-4.49147399786 -3.80895359418 0)
(-4.65798441398 -3.37695083222 0)
(-4.81593890821 -3.00965794126 0)
(-4.97719196205 -2.69550313589 0)
(-5.14593551352 -2.42422039098 0)
(-5.32160117831 -2.18730059353 0)
(-5.50198838664 -1.97775248425 0)
(-5.6844549133 -1.79000441429 0)
(-5.86631554388 -1.61973618876 0)
(-6.04505962377 -1.46362952788 0)
(-6.2184826617 -1.31912360051 0)
(-6.38473982059 -1.18421468051 0)
(-6.54234494816 -1.05730120816 0)
(-6.69014171032 -0.937067093895 0)
(-6.827263808 -0.822395022698 0)
(-6.95309273075 -0.712303350738 0)
(-7.06721707579 -0.605899982678 0)
(-7.16939540692 -0.502348689905 0)
(-7.25952378093 -0.400843279096 0)
(-7.33760759907 -0.300587392427 0)
(-7.40373918363 -0.200776568149 0)
(-7.45807706278 -0.100582741289 0)
(-7.50083764689 0.00086573010764 0)
(-7.53227210346 0.104496876496 0)
(-7.55271092554 0.211344530791 0)
(-7.56246262217 0.322519622079 0)
(-7.56215179025 0.439434468611 0)
(-7.55147008337 0.560113196671 0)
(-7.52862932996 0.667015505667 0)
(-7.4932248906 0.757848121949 0)
(-7.44562017819 0.83151733726 0)
(-7.38647195253 0.88835727893 0)
(-7.31668119222 0.929738034846 0)
(-7.23723764217 0.957826581279 0)
(-7.14909794691 0.975451249644 0)
(-7.05320104728 0.985834476157 0)
(-6.95049082465 0.992233246797 0)
(-6.84186517111 0.99763592306 1.59608929182e-27)
(-6.7280965339 1.0045678412 -1.60345188187e-27)
(-6.60977694277 1.01498811019 0)
(-6.48729307907 1.03025912548 0)
(-6.36081980873 1.05118052392 0)
(-6.23032900367 1.07807344266 0)
(-6.09561635055 1.11089423929 0)
(-5.95634563025 1.1493550616 0)
(-5.81210534665 1.19303309112 0)
(-5.66246992873 1.24145480768 0)
(-5.5070568715 1.29414806574 0)
(-5.34557127566 1.35065979965 0)
(-5.17783085996 1.41054445986 0)
(-5.00376841207 1.4733330373 0)
(-4.82341453501 1.53849794857 0)
(-4.63686932478 1.60543276097 0)
(-4.44427804987 1.67346063046 0)
(-4.24582281831 1.74189393828 0)
(-4.04174313477 1.8101327309 0)
(-3.83237784184 1.87782257162 0)
(-3.61820988157 1.94501598292 0)
(-3.39990441297 2.01233675761 0)
(-3.17821906565 2.08111513044 0)
(-2.95400889687 2.15332341631 0)
(-2.72766370786 2.23154659528 0)
(-2.49976114987 2.31845929269 0)
(-2.2682409001 2.41666012119 0)
(-2.03565637434 2.52644539333 0)
(-1.7884555235 2.64804859364 0)
(-1.55735115809 2.77061378477 0)
(-1.24526720299 2.90058004751 0)
(-1.14086933766 2.97538761759 0)
(-0.388789273985 3.14015537364 0)
(-1.95640158147 2.91857218891 0)
(4.23696304236 4.86236108905 0)
(-7.8703510356 4.20157843704 0)
(31.4538752324 -9.49360152776 0)
(-13.9532401232 -4.82016744354 0)
(-0.35001398094 -7.98847495464 0)
(-2.76946073019 -6.74730500225 0)
(-3.66901029907 -5.83546249403 0)
(-3.79596073147 -5.1198786229 0)
(-3.91843136886 -4.48976337485 0)
(-4.06433012387 -3.96109209865 0)
(-4.20946890536 -3.52741216222 0)
(-4.36142017828 -3.16797232491 0)
(-4.52694405154 -2.86460336219 0)
(-4.70587531697 -2.60384258882 0)
(-4.89511970961 -2.37554729584 0)
(-5.09097248934 -2.17208476365 0)
(-5.28977066585 -1.98785610567 0)
(-5.48811002701 -1.81885258043 0)
(-5.68297914911 -1.66223338491 0)
(-5.87182183483 -1.51598819513 0)
(-6.05253973083 -1.37868639151 0)
(-6.22345885329 -1.249297061 0)
(-6.38328042054 -1.12706263998 0)
(-6.53102792261 -1.01141239746 0)
(-6.66599582419 -0.901904700872 0)
(-6.78770240823 -0.798190016383 0)
(-6.89584765718 -0.699987860318 0)
(-6.99027662438 -0.607073635528 0)
(-7.07094726829 -0.519272003317 0)
(-7.13790454562 -0.436455912199 0)
(-7.19125561514 -0.358548502804 0)
(-7.23115867177 -0.28553197245 0)
(-7.25779601849 -0.21745192565 0)
(-7.27140239994 -0.154447361584 0)
(-7.27218528668 -0.0967395382775 1.98613453262e-27)
(-7.26055222045 -0.04475597875 -2.01273564348e-27)
(-7.23696715666 0.00437849043884 0)
(-7.20327357174 0.05810297412 0)
(-7.15993727075 0.117814059035 0)
(-7.10727037823 0.184008308313 0)
(-7.04554286979 0.256360566545 0)
(-6.97498769694 0.333848389917 0)
(-6.89579324944 0.414958352028 0)
(-6.80810300049 0.497998013079 0)
(-6.71206494511 0.581373881594 0)
(-6.60789681454 0.663763256409 0)
(-6.4959142452 0.74420794297 0)
(-6.37652134705 0.822157510042 0)
(-6.25018788421 0.897460250041 0)
(-6.11742255887 0.970302434557 0)
(-5.97873925405 1.04111219057 0)
(-5.83461677269 1.11045074909 0)
(-5.68545902062 1.17890976986 0)
(-5.53156400743 1.24702776521 0)
(-5.3731076728 1.31523315736 0)
(-5.21014602957 1.38381631796 0)
(-5.04263577327 1.45292879692 0)
(-4.87047013586 1.5226020281 0)
(-4.69352256626 1.59277730245 0)
(-4.51168874782 1.66333608365 0)
(-4.32491802978 1.73412270971 0)
(-4.13322666557 1.8049623198 0)
(-3.93669845451 1.87566348302 0)
(-3.73547146668 1.94605059776 0)
(-3.52973994175 2.0159841645 0)
(-3.31976310084 2.08547401796 0)
(-3.10590364107 2.15477505308 0)
(-2.88868707781 2.22455370977 0)
(-2.6687628304 2.29611456466 0)
(-2.44701679445 2.37136129373 0)
(-2.22410680898 2.45290892613 0)
(-2.00138070266 2.54346970009 0)
(-1.77759951547 2.64585840062 0)
(-1.55785289973 2.76036696627 0)
(-1.32862306757 2.88684995411 0)
(-1.13048365129 3.0132035064 0)
(-0.849697219703 3.14580593823 0)
(-0.83692642177 3.21471484436 0)
(-0.0478316839414 3.37638458802 0)
(-2.12971679189 3.08649691838 0)
(5.19787278728 5.17389129773 0)
(-9.25511274441 4.21954015952 0)
(38.547136765 -9.3536905019 0)
(-18.3843732571 -6.53642819693 0)
(0.781507520463 -9.21842794271 0)
(-2.8595802713 -7.13602680221 0)
(-3.39160946553 -6.09453508955 0)
(-3.40635188428 -5.29320613719 0)
(-3.51424573134 -4.62783280112 0)
(-3.65350850561 -4.09925211501 0)
(-3.80069745898 -3.67853210217 0)
(-3.96334039475 -3.33499129736 0)
(-4.14413518355 -3.0465472147 0)
(-4.34019759234 -2.79773513033 0)
(-4.54714038959 -2.57744589655 0)
(-4.76055144506 -2.37781846168 0)
(-4.97631631393 -2.19344128791 0)
(-5.19075059235 -2.02069000139 0)
(-5.40068670209 -1.85717100645 0)
(-5.60348880217 -1.70131808253 0)
(-5.79702485282 -1.55210333836 0)
(-5.97961493676 -1.40883758061 0)
(-6.14997227839 -1.27103649287 0)
(-6.30714537712 -1.13833246245 0)
(-6.45046410589 -1.01041847216 0)
(-6.5794911683 -0.887013413086 0)
(-6.69397906396 -0.767841277084 0)
(-6.79383240801 -0.652618860513 0)
(-6.87907411658 -0.541049391819 0)
(-6.94981814628 -0.43281964749 0)
(-7.0062411699 -0.327599837431 0)
(-7.04857409051 -0.225046612955 0)
(-7.0770595739 -0.124802125462 0)
(-7.09201957954 -0.0265131671358 0)
(-7.09365749611 0.0702131253951 0)
(-7.08257063181 0.165647474824 0)
(-7.05840265178 0.258291455982 0)
(-7.02125688496 0.34584865848 0)
(-6.97129068161 0.428123006361 0)
(-6.90896631731 0.505316301509 0)
(-6.83491861074 0.577973962758 0)
(-6.74987425402 0.646869685429 0)
(-6.65460314985 0.712867767927 0)
(-6.54987453405 0.776821349759 0)
(-6.43643106166 0.839503468211 0)
(-6.31498259407 0.901553280487 0)
(-6.1862004449 0.963449927561 0)
(-6.05070480911 1.02552716291 0)
(-5.90905428663 1.08801830291 0)
(-5.76174319682 1.15110882675 0)
(-5.60920337256 1.2149790095 0)
(-5.45180520077 1.27982722569 0)
(-5.28985610038 1.34587052017 0)
(-5.12359721511 1.41332385212 0)
(-4.95320005688 1.48236435479 0)
(-4.77876615877 1.55308938928 0)
(-4.60033235647 1.62548247273 0)
(-4.41788504579 1.6993928963 0)
(-4.23138268477 1.774539219 0)
(-4.04078461811 1.85053379876 0)
(-3.84608215494 1.92692040848 0)
(-3.6473183814 2.00323418274 0)
(-3.44460530404 2.07902757013 0)
(-3.23811180446 2.15396055683 0)
(-3.02807087229 2.22777450973 0)
(-2.81475804008 2.30044870906 0)
(-2.59851556109 2.37221309873 0)
(-2.3798093091 2.44371354004 0)
(-2.15925904413 2.51624833439 0)
(-1.93764001521 2.59171795965 0)
(-1.7156818315 2.6728523023 0)
(-1.49521789929 2.76219794428 0)
(-1.27542347265 2.86319256659 0)
(-1.06395692194 2.97554466133 0)
(-0.847443543777 3.09786853621 0)
(-0.678001409469 3.21653553243 0)
(-0.423509171424 3.3375203027 0)
(-0.503214613906 3.38979279363 0)
(0.329914806129 3.52607219526 0)
(-2.34613240939 3.17764753082 0)
(6.34509487838 5.4250386223 0)
(-10.7475502469 4.17144787652 0)
(46.0768006428 -9.31958657121 0)
(-23.3113372111 -8.39537246279 0)
(2.43390666563 -10.1402814128 0)
(-2.97667364406 -7.33857972179 0)
(-3.03164109909 -6.28891598918 0)
(-3.02291567658 -5.4302936857 0)
(-3.14336512945 -4.75507163405 0)
(-3.28806340312 -4.24061591287 0)
(-3.44613297392 -3.83956997263 0)
(-3.62429581367 -3.5154665634 0)
(-3.82204199465 -3.24378050761 0)
(-4.03491090697 -3.00771701489 0)
(-4.25786755037 -2.79569147788 0)
(-4.48616251162 -2.59997225911 0)
(-4.71549910571 -2.41557115857 0)
(-4.94212238268 -2.23941923707 0)
(-5.16287005592 -2.06969794659 0)
(-5.37514624239 -1.90539669539 0)
(-5.57687524142 -1.74599592006 0)
(-5.76643751163 -1.591258897 0)
(-5.94260593356 -1.44109855956 0)
(-6.10448733011 -1.2954937069 0)
(-6.25146894315 -1.15443934993 0)
(-6.38317065268 -1.01791923504 0)
(-6.4994023835 -0.885891521887 0)
(-6.60012541965 -0.758282717576 0)
(-6.68541661194 -0.634987980574 0)
(-6.75543763807 -0.515874509942 0)
(-6.81040324223 -0.400791185641 0)
(-6.85056817298 -0.289577692547 0)
(-6.87618013665 -0.182083411366 0)
(-6.88755003084 -0.0781862820928 0)
(-6.88483836644 0.0222093479738 0)
(-6.86868921908 0.11903893929 0)
(-6.8387990827 0.213947351121 0)
(-6.79585554367 0.307833847309 0)
(-6.74005799365 0.400908689139 0)
(-6.67169979264 0.493112260803 0)
(-6.59117438726 0.58414938355 0)
(-6.49895119909 0.673594822782 0)
(-6.39557330757 0.76100295862 0)
(-6.2816584986 0.84600761464 0)
(-6.15789524774 0.928396510593 0)
(-6.02503546553 1.0081425144 0)
(-5.88387867102 1.08539442076 0)
(-5.73524375713 1.16044607474 0)
(-5.57993375658 1.23369930456 0)
(-5.41870206264 1.30562739244 0)
(-5.25222466786 1.37674164887 0)
(-5.0810800171 1.44756210586 0)
(-4.9057373576 1.51859116616 0)
(-4.72655419208 1.5902873428 0)
(-4.5437813673 1.66303770789 0)
(-4.35757568666 1.73712404308 0)
(-4.16801599406 1.81269685462 0)
(-3.97512456121 1.8897491557 0)
(-3.778888473 1.96811155932 0)
(-3.57928315774 2.04746405562 0)
(-3.37629822285 2.12735724146 0)