/*--------------------------------*- C++ -*----------------------------------*\
| =========                 |                                                 |
| \\      /  F ield         | OpenFOAM: The Open Source CFD Toolbox           |
|  \\    /   O peration     | Version:  v1806                                 |
|   \\  /    A nd           | Web:      www.OpenFOAM.com                      |
|    \\/     M anipulation  |                                                 |
\*---------------------------------------------------------------------------*/
FoamFile
{
    version     2.0;
    format      ascii;
    class       volScalarField;
    location    "100";
    object      alphak;
}
// * * * * * * * * * * * * * * * * * * * * * * * * * * * * * * * * * * * * * //

dimensions      [0 0 -1 0 0 0 0];


internalField   nonuniform List<scalar> 
6400
(
0.00816869926592
0.0193742226945
0.18192051638
0.446028577459
0.588128859599
0.618456618712
0.537441123707
0.444200782226
0.275462917882
0
0
0
0
0
0
0
0
0
0
0
0
0
0
0
0
0
0
0
0
0
0
0
0
0
0
0
0
0
0
0
0
0
0
0
0
0
0
0
0
0
0
0
0
0
0
0
0
0
0
0.0140915234352
0.0516822658555
0.00258177965389
0
0
0
0
0
0
0
0
0
0
0
0
0
0
0
0
0.0843318699851
0.0693172798243
0.0859528323203
0.233533029481
0.338692267229
0.389024234261
0.397395134754
0.269713493038
0
0
0
0
0
0
0
0
0
0
0
0
0
0
0
0
0
0
0
0
0
0
0
0
0
0
0
0
0
0
0
0
0
0
0
0
0
0
0
0
0
0
0
0
0
0
0
0
0
0
0
0
0
0
0
0
0
0
0
0
0
0
0
0
0
0
0
0
0
0
0
0
0
0.0291980204939
0.198851494865
0.297098767145
0.176540513389
0.0508746375976
0
0
0
0
0
0
0
0
0
0
0
0
0
0
0
0
0
0
0
0
0
0
0
0
0
0
0
0
0
0
0
0
0
0
0
0
0
0
0
0
0
0
0
0
0
0
0
0
0
0
0
0
0
0
0
0
0
0
0
0
0
0
0
0
0
0
0
0
0
0
0
0
0
0
0
0
0.19200314449
0.249164526541
0
0
0
0
0
0
0
0
0
0
0
0
0
0
0
0
0
0
0
0
0
0
0
0
0
0
0
0
0
0
0
0
0
0
0
0
0
0
0
0
0
0
0
0
0
0
0
0
0
0
0
0
0
0
0
0
0
0
0
0
0
0
0
0
0
0
0
0
0
0
0
0
0
0
0
0
0
0
0.160627155284
0.0183210586486
0
0
0
0
0
0
0
0
0
0
0
0
0
0
0
0
0
0
0
0
0
0
0
0
0
0
0
0
0
0
0
0
0
0
0
0
0
0
0
0
0
0
0
0
0
0
0
0
0
0
0
0
0
0
0
0
0
0
0
0
0
0
0
0
0
0
0
0
0
0
0
0
0
0
0
0
0
0
0.132946938639
0
0
0
0
0
0
0
0
0
0
0
0
0
0
0
0
0
0
0
0
0
0
0
0
0
0
0
0
0
0
0
0
0
0
0
0
0
0
0
0
0
0
0
0
0
0
0
0
0
0
0
0
0
0
0
0
0
0
0
0
0
0
0
0
0
0
0
0
0
0
0
0
0
0
0
0
0
0
0
0
0
0
0
0
0
0
0
0
0
0
0
0
0
0
0
0
0
0
0
0
0
0
0
0
0
0
0
0
0
0
0
0
0
0
0
0
0
0
0
0
0
0
0
0
0
0
0
0
0
0
0
0
0
0
0
0
0
0
0
0
0
0
0
0
0
0
0
0
0
0
0
0
0
0
0
0
0
0
0
0
0
0
0
0
0
0
0
0
0
0
0
0
0
0
0
0
0
0
0
0
0
0
0
0
0
0
0
0
0
0
0
0
0
0
0
0
0
0
0
0
0
0
0
0
0
0
0
0
0
0
0
0
0
0
0
0
0
0
0
0
0
0
0
0
0
0
0
0
0
0
0
0
0
0
0
0
0
0
0
0
0
0
0
0
0
0
0
0
0
0
0
0
0
0
0
0
0
0
0
0
0
0
0
0
0
0
0
0
0
0
0
0
0
0
0
0
0
0
0
0
0
0
0
0
0
0
0
0
0
0
0
0
0
0
0
0
0
0
0
0
0
0
0
0
0
0
0
0
0
0
0
0
0
0
0
0
0
0
0
0
0
0
0
0
0
0
0
0
0
0
0
0
0
0
0
0
0
0
0
0
0
0
0
0
0
0
0
0
0
0
0
0
0
0
0
0
0
0
0
0
0
0
0
0
0
0
0
0
0
0
0
0
0
0
0
0
0
0
0
0
0
0
0
0
0
0
0
0
0
0
0
0
0
0
0
0
0
0
0
0
0
0
0
0
0
0
0
0
0
0
0
0
0
0
0
0
0
0
0
0
0
0
0
0
0
0
0
0
0
0
0
0
0
0
0
0
0
0
0
0
0
0
0
0
0
0
0
0
0
0
0
0
0
0
0
0
0
0
0
0
0
0
0
0
0
0
0
0
0
0
0
0
0
0
0
0
0
0
0
0
0
0
0
0
0
0
0
0
0
0
0
0
0
0
0
0
0
0
0
0
0
0
0
0
0
0
0
0
0
0
0
0
0
0
0
0
0
0
0
0
0
0
0
0
0
0
0
0
0
0
0
0
0
0
0
0
0
0
0
0
0
0
0
0
0
0
0
0
0
0
0
0
0
0
0
0
0
0
0
0
0
0
0
0
0
0
0
0
0
0
0
0
0
0
0
0
0
0
0
0
0
0
0
0
0
0
0
0
0
0
0
0
0
0
0
0
0
0
0
0
0
0
0
0
0
0
0
0
0
0
0
0
0
0
0
0
0
0
0
0
0
0
0
0
0.247189001816
0.465145615836
0.488554067965
0.298344743328
0
0
0
0
0
0
0
0
0
0
0
0
0
0
0
0
0
0
0
0
0
0
0
0
0
0
0
0
0
0
0
0
0
0
0
0
0
0
0
0
0
0
0
0
0
0
0
0
0
0
0
0
0
0
0
0
0
0
0
0
0
0
0
0
0
0
0
0
0
0
0
0
0
0
0
0.529363081163
0.899601531836
1
1
0.980763467712
0.61232085819
0
0
0
0
0
0
0
0
0
0
0
0
0
0
0
0
0
0
0
0
0
0
0
0
0
0
0
0
0
0
0
0
0
0
0
0
0
0
0
0.000516076019302
0.000710967972981
0.000399186679647
0
0
0
0
0
0
0
0
0
0
0
0
0
0
0
0
0
0
0
0
0
0
0
0
0
0
0
0
0
0
0
0.575433488316
0.986137006955
1
1
1
1
1
0.644415747918
0
0
0
0
0
0
0
0
0
0
0
0
0
0
0
0
0
0
0
0
0
0
0
0
0
0
0
0
0
0
0
0
0
0
0
0.0011923829432
0.00375024113403
0.00535065486975
0.00590095287492
0.00574135442296
0.00462351826303
0.00301958248129
0.00136871976371
0.000316054771471
0
0
0
0
0
0
0
0
0
0
0
0
0
0
0
0
0
0
0
0
0
0
0
0
0
0
0
0.444537614716
0.957339197585
1
1
1
1
1
1
1
0.408149119794
0
0
0
0
0
0
0
0
0
0
0
0
0
0
0
0
0
0
0
0
0
0
0
0
0
0
0
0
0
0
0
0.00201845978207
0.00708982627147
0.0111669163073
0.0137087072183
0.0145500433773
0.0138747998514
0.0128167867948
0.0109856666992
0.00869639394219
0.00635141707822
0.00414139601285
0.00205268033744
0.000485178918747
0
0
0
0
0
0
0
0
0
0
0
0
0
0
0
0
0
0
0
0
0
0
0
0
0
0.150043661599
0.869345296805
1
1
1
1
1
1
1
1
1
0
0
0
0
0
0
0
0
0
0
0
0
0
0
0
0
0
0
0
0
0
0
0
0
0
0
0.00485862821879
0.0116430508926
0.0167342008948
0.0210133890616
0.0252047626392
0.0276008110103
0.0294954721919
0.0295831625312
0.028079107658
0.0253044697958
0.0221137121874
0.0183606972684
0.0151217811413
0.0120431710776
0.00944389760994
0.00670476670902
0.00384715831964
0.00114290319169
0
0
0
0
0
0
0
0
0
0
0
0
0
0
0
0
0
0
0
0
0
0
0
0
0
0.694435003131
0.991769409608
1
1
1
1
1
1
1
1
1
0.911183405818
0
0
0
0
0
0
0
0
0
0
0
0
0
0
0
0
0
0
0
0
0
0
0
0
0.00594251914928
0.0229632187123
0.0343006104785
0.0415757837516
0.046959562937
0.0505780153181
0.0512276312902
0.0487652393592
0.0443316912562
0.0388515396839
0.0326143699472
0.0268813054608
0.0221532103714
0.0181041378914
0.0148828708478
0.011855030803
0.00842862510377
0.00444384747741
0.000485362803581
0
0
0
0
0
0
0
0
0
0
0
0
0
0
0
0
0
0
0
0
0
0
0
0
0.367243644839
0.923304580172
1
1
1
1
1
1
1
1
1
1
1
0.452533902526
0
0
0
0
0
0
0
0
0
0
0
0
0
0
0
0
0
0
0
0
0
0
0
0.0191863718645
0.0400552514091
0.0533633340477
0.0611895681835
0.0656499890487
0.0668614620902
0.0648278294436
0.0580546571127
0.0504107486831
0.0426914979998
0.0351945191585
0.0288635506327
0.024060335281
0.0200954597139
0.0166623272513
0.0129116409061
0.00812442420713
0.00266024672516
0
0
0
0
0
0
0
0
0
0
0
0
0
0
0
0
0
0
0
0
0
0
0
0
0
0.752528535377
0.998559633947
1
1
1
1
1
1
1
1
1
1
1
0.993830508263
0
0
0
0
0
0
0
0
0
0
0
0
0
0
0
0
0
0
0
0
0
0
0.00276766630277
0.0266820101988
0.0488852752369
0.0892306964739
0.150368412647
0.190518665431
0.211954931799
0.209925706374
0.186925583781
0.137692226987
0.0604774570038
0.0341260707385
0.0289480340552
0.0246665738926
0.0210492076674
0.0169051032302
0.0117073435894
0.00513552193663
0
0
0
0
0
0
0
0
0
0
0
0
0
0
0
0
0
0
0
0
0
0
0
0
0
0.457430778401
0.940059858659
1
1
1
1
1
1
1
1
1
1
1
1
1
0.00272092964198
0
0
0
0
0
0
0
0
0
0
0
0
0
0
0
0
0
0
0
0
0
0.00527484240621
0.0310597334888
0.152550187388
0.240067844072
0.297257386648
0.330886619196
0.346854660936
0.344064619391
0.319050848214
0.270585489439
0.193164597358
0.0754919927352
0.0282385481806
0.0245395201592
0.0205299876927
0.0151031147988
0.00784411891666
0.000306130017301
0
0
0
0
0
0
0
0
0
0
0
0
0
0
0
0
0
0
0
0
0
0
0
0
0
0.768799579862
0.999471477917
1
1
1
1
1
1
1
1
1
1
1
1
1
0.45810969908
0
0
0
0
0
0
0
0
0
0
0
0
0
0
0
0
0
0
0
0
0
0.0072300376181
0.149223732403
0.271563318472
0.355457590096
0.404889626568
0.434072971911
0.448915078741
0.446503971898
0.420045548549
0.371834570428
0.295311562719
0.181770175586
0.0275562109367
0.0235395424727
0.0183258379497
0.010620171469
0.00172625777005
0
0
0
0
0
0
0
0
0
0
0
0
0
0
0
0
0
0
0
0
0
0
0
0
0
0.453242013539
0.939331963293
1
1
1
1
1
1
1
1
1
1
1
1
1
1
0.937304743028
0
0
0
0
0
0
0
0
0
0
0
0
0
0
0
0
0
0
0
0
0
0.0786857472902
0.24563587881
0.364040631063
0.439668127346
0.48526181301
0.514992357509
0.529529400505
0.527719625846
0.502429984049
0.453943556738
0.37851078573
0.271474486698
0.121984009994
0.0212232726515
0.0136830830249
0.00383800255975
0
0
0
0
0
0
0
0
0
0
0
0
0
0
0
0
0
0
0
0
0
0
0
0
0
0
0.75296505422
0.998960352111
1
1
1
1
1
1
1
1
1
1
1
1
1
1
1
0
0
0
0
0
0
0
0
0
0
0
0
0
0
0
0
0
0
0
0
0
0.159062038241
0.320268815765
0.432975004706
0.503017976424
0.54959942684
0.580249351637
0.595356026964
0.59520898803
0.572724592895
0.526790087694
0.453886239086
0.351973096963
0.21087758641
0.0360419912245
0.00683978405335
0
0
0
0
0
0
0
0
0
0
0
0
0
0
0
0
0
0
0
0
0
0
0
0
0
0
0.400551593373
0.924153078375
1
1
1
1
1
1
1
1
1
1
1
1
1
1
1
1
0.203933817191
0
0
0
0
0
0
0
0
0
0
0
0
0
0
0
0
0
0
0
0.00495217206183
0.223083595308
0.377771971074
0.484608816315
0.553151286494
0.602263868159
0.634253487493
0.651004040562
0.653688441497
0.635107802986
0.593806878383
0.52506730793
0.427539075059
0.293850856443
0.125747392807
0
0
0
0
0
0
0
0
0
0
0
0
0
0
0
0
0
0
0
0
0
0
0
0
0
0
0
0.705322563206
0.995443206443
1
1
1
1
1
1
1
1
1
1
1
1
1
1
1
1
0.903181101862
0
0
0
0
0
0
0
0
0
0
0
0
0
0
0
0
0
0
0
0.0584603113076
0.273170161304
0.421970440476
0.525052446809
0.594306577349
0.646020547586
0.679965566291
0.699844275073
0.705280404667
0.690691599292
0.654611469705
0.591417107982
0.497856511609
0.370422373024
0.208208223612
0.0234132524426
0
0
0
0
0
0
0
0
0
0
0
0
0
0
0
0
0
0
0
0
0
0
0
0
0
0.291769173649
0.891198043159
1
1
1
1
1
1
1
1
1
1
1
1
1
1
1
1
1
1
0
0
0
0
0
0
0
0
0
0
0
0
0
0
0
0
0
0
0
0.103559060141
0.311860055993
0.455462649268
0.558250723278
0.629432562772
0.683200255982
0.720179949992
0.742794099698
0.750859897892
0.741244752562
0.709167853371
0.651773231318
0.563107230534
0.439009030823
0.281242773458
0.0969014442321
0
0
0
0
0
0
0
0
0
0
0
0
0
0
0
0
0
0
0
0
0
0
0
0
0
0.618931379378
0.983437176996
1
1
1
1
1
1
1
1
1
1
1
1
1
1
1
1
1
1
0
0
0
0
0
0
0
0
0
0
0
0
0
0
0
0
0
0
0
0.138777325471
0.340810966081
0.48307930702
0.585652432304
0.66003263896
0.716178640267
0.755595241394
0.780602958718
0.791161310432
0.786121295016
0.75728858471
0.705430067105
0.621758331589
0.501606340813
0.345327894973
0.160611357203
0
0
0
0
0
0
0
0
0
0
0
0
0
0
0
0
0
0
0
0
0
0
0
0
0
0.830768814776
1
1
1
1
1
1
1
1
1
1
1
1
1
1
1
1
1
1
1
0
0
0
0
0
0
0
0
0
0
0
0
0
0
0
0
0
0
0
0.167867480826
0.364751136839
0.505984804829
0.609703882045
0.686312397949
0.744712186634
0.786428988132
0.813807036622
0.828691748641
0.82552345463
0.801493419724
0.751762160193
0.672588852537
0.555946642
0.401991754485
0.215868953618
0.00404851092353
0
0
0
0
0
0
0
0
0
0
0
0
0
0
0
0
0
0
0
0
0
0
0
0.476684437041
0.952627893043
1
1
1
1
1
1
1
1
1
1
1
1
1
1
1
1
1
1
1
0
0
0
0
0
0
0
0
0
0
0
0
0
0
0
0
0
0
0
0.190307369442
0.383710815584
0.526120201655
0.631538718643
0.710354459107
0.770052929462
0.814202411335
0.845087936003
0.861477437323
0.860169570817
0.839455263737
0.792964565546
0.715628548795
0.602428934994
0.451187895604
0.265669166007
0.0570488852263
0
0
0
0
0
0
0
0
0
0
0
0
0
0
0
0
0
0
0
0
0
0
0
0.727651252848
0.999289384242
1
1
1
1
1
1
1
1
1
1
1
1
1
1
1
1
1
1
0.605204094343
0
0
0
0
0
0
0
0
0
0
0
0
0
0
0
0
0
0
0
0.20940096782
0.40057170588
0.544310415391
0.651271811342
0.731751847197
0.793439443136
0.839569037852
0.872100958407
0.8899185297
0.891649622449
0.871168243923
0.828420172726
0.753951917961
0.642267999407
0.494268721874
0.312805257829
0.101894103636
0
0
0
0
0
0
0
0
0
0
0
0
0
0
0
0
0
0
0
0
0
0
0.249300137283
0.888609593673
1
1
1
1
1
1
1
1
1
1
1
1
1
1
1
1
1
1
1
0.0123806245567
0
0
0
0
0
0
0
0
0
0
0
0
0
0
0
0
0
0
0
0.226510124839
0.415829406368
0.562011670358
0.669665961381
0.751485412753
0.813930891401
0.861644905003
0.896326620817
0.91627371091
0.917742384797
0.899902022653
0.857596936122
0.78674894506
0.67920086999
0.532944234845
0.356161273417
0.144573202488
0
0
0
0
0
0
0
0
0
0
0
0
0
0
0
0
0
0
0
0
0
0
0.558732796385
0.976470581701
1
1
1
1
1
1
1
1
1
1
1
1
1
1
1
1
1
1
0.899639782664
0
0
0
0
0
0
0
0
0
0
0
0
0
0
0
0
0
0
0
0
0.243046354287
0.430756557696
0.578740861818
0.687024580501
0.769059918903
0.833361292135
0.882598366652
0.918143556408
0.938018295454
0.940952239581
0.92380493713
0.883622437218
0.814213572954
0.711084780258
0.570292627559
0.39695891312
0.189981827519
0
0
0
0
0
0
0
0
0
0
0
0
0
0
0
0
0
0
0
0
0
0
0.771990267687
1
1
1
1
1
1
1
1
1
1
1
1
1
1
1
1
1
1
1
0
0
0
0
0
0
0
0
0
0
0
0
0
0
0
0
0
0
0
0
0
0.258737030523
0.445604322258
0.594973526402
0.702681289906
0.785836322063
0.850479154136
0.900554772703
0.937275214797
0.958185909652
0.960751653903
0.943765157489
0.906173089747
0.839935391431
0.739286419665
0.604474086117
0.435028908453
0.236273192167
0
0
0
0
0
0
0
0
0
0
0
0
0
0
0
0
0
0
0
0
0
0.279289135446
0.908923162619
1
1
1
1
1
1
1
1
1
1
1
1
1
1
1
1
1
1
0.965776192681
0
0
0
0
0
0
0
0
0
0
0
0
0
0
0
0
0
0
0
0
0.0226689977437
0.27534036693
0.461888131799
0.611217489347
0.717496238715
0.800633950266
0.866243547684
0.917647168494
0.954609100714
0.974775851801
0.977432992239
0.962317890315
0.924800702112
0.863005492177
0.768144220085
0.636582926561
0.474905776348
0.282703692035
0.0197150528705
0
0
0
0
0
0
0
0
0
0
0
0
0
0
0
0
0
0
0
0
0.56958234846
0.981557321844
1
1
1
1
1
1
1
1
1
1
1
1
1
1
1
1
1
1
0
0
0
0
0
0
0
0
0
0
0
0
0
0
0
0
0
0
0
0
0
0.0498935914733
0.294098989858
0.47885886963
0.626698994491
0.731497327589
0.81421731588
0.880690747092
0.932620554668
0.96968815234
0.989978710184
0.992809150485
0.977439390641
0.943714565879
0.883507295592
0.794389053979
0.670094519546
0.514734009009
0.32572038759
0.0863363073076
0
0
0
0
0
0
0
0
0
0
0
0
0
0
0
0
0
0
0
0
0.770126125314
1
1
1
1
1
1
1
1
1
1
1
1
1
1
1
1
1
1
0.91792920963
0
0
0
0
0
0
0
0
0
0
0
0
0
0
0
0
0
0
0
0
0
0.0799040742178
0.31609992134
0.496658779661
0.6408600242
0.744183856352
0.827042022029
0.893525827994
0.946206575129
0.983030970943
1
1
0.992491236208
0.960100784818
0.905322219973
0.820718537207
0.702008673391
0.553853685837
0.371966413822
0.154633262718
0
0
0
0
0
0
0
0
0
0
0
0
0
0
0
0
0
0
0
0.193386199326
0.900535365365
1
1
1
1
1
1
1
1
1
1
1
1
1
1
1
1
1
1
0.320042893442
0
0
0
0
0
0
0
0
0
0
0
0
0
0
0
0
0
0
0
0
0
0.113809234513
0.338949527842
0.515216965754
0.653152456519
0.755711434592
0.838924788095
0.905888161766
0.958496172244
0.994893067941
1
1
1
0.97659447407
0.925031887155
0.847634256041
0.735729339241
0.594845506459
0.421598505512
0.220746672778
0
0
0
0
0
0
0
0
0
0
0
0
0
0
0
0
0
0
0
0.501158957074
0.973915236953
1
1
1
1
1
1
1
1
1
1
1
1
1
1
1
1
1
0.811308736032
0
0
0
0
0
0
0
0
0
0
0
0
0
0
0
0
0
0
0
0
0
0
0.148596994905
0.361472292639
0.531923426717
0.664168856464
0.766762267712
0.850214784415
0.917156975981
0.968738735233
1
1
1
1
0.99290896476
0.94635292257
0.873266554002
0.768458558875
0.63599268649
0.478957703271
0.283100247461
0.0209116960147
0
0
0
0
0
0
0
0
0
0
0
0
0
0
0
0
0
0
0.715854906318
1
1
1
1
1
1
1
1
1
1
1
1
1
1
1
1
1
0.971266094213
0.458822922219
0
0
0
0
0
0
0
0
0
0
0
0
0
0
0
0
0
0
0
0
0
0
0.184787990706
0.382564230304
0.545873604484
0.675035455916
0.777482419831
0.860590744413
0.926882422981
0.978188134589
1
1
1
1
1
0.967386243684
0.90209202362
0.803766637037
0.677753037826
0.531439586495
0.342301038687
0.08095154662
0
0
0
0
0
0
0
0
0
0
0
0
0
0
0
0
0
0
0.859160815003
1
1
1
1
1
1
1
1
1
1
1
1
1
1
1
1
1
0.759863261615
0.0506271581911
0
0
0
0
0
0
0
0
0
0
0
0
0
0
0
0
0
0
0
0
0
0.0321012192328
0.223658979946
0.405375395028
0.560398989876
0.686198969388
0.78763442465
0.869846721387
0.93524930617
0.986018690683
1
1
1
1
1
0.98817487726
0.929194731836
0.837895653085
0.721426133403
0.58166595773
0.398635356129
0.136915287076
0
0
0
0
0
0
0
0
0
0
0
0
0
0
0
0
0
0.304821773326
0.947492515965
1
1
1
1
1
1
1
1
1
1
1
1
1
1
1
1
0.936561652224
0.455665744397
0
0
0
0
0
0
0
0
0
0
0
0
0
0
0
0
0
0
0
0
0
0
0.0904258959183
0.264884670507
0.431078195685
0.576593603425
0.697662679055
0.796984370945
0.87785913138
0.942134526826
0.99218566446
1
1
1
1
1
1
0.956852800204
0.87133263078
0.762705047314
0.628064946877
0.449373214162
0.188747875998
0
0
0
0
0
0
0
0
0
0
0
0
0
0
0
0
0
0.57364578342
0.992000138708
1
1
1
1
1
1
1
1
1
1
1
1
1
1
1
0.999977540657
0.717409065097
0.0812701413131
0
0
0
0
0
0
0
0
0
0
0
0
0
0
0
0
0
0
0
0
0
0
0.14996586519
0.307994823453
0.459368766929
0.594575899405
0.710123373586
0.805633742394
0.88455577992
0.947983040316
0.997643578563
1
1
1
1
1
1
0.983737463815
0.904783982589
0.79855647475
0.672455734102
0.496161399597
0.236412643235
0
0
0
0
0
0
0
0
0
0
0
0
0
0
0
0
0
0.761430947499
1
1
1
1
1
1
1
1
1
1
1
1
1
1
1
1
0.900380794164
0.418873244218
0
0
0
0
0
0
0
0
0
0
0
0
0
0
0
0
0
0
0
0
0
0
0.0689240515611
0.209875069851
0.352719925753
0.490036582466
0.614722857145
0.722969276335
0.813704078994
0.890004949227
0.952547959736
1
1
1
1
1
1
1
0.998529113706
0.934083493668
0.835698136812
0.710690558736
0.53899943885
0.280400747553
0
0
0
0
0
0
0
0
0
0
0
0
0
0
0
0
0
0.883231859355
1
1
1
1
1
1
1
1
1
1
1
1
1
1
1
0.993133771496
0.667101469891
0
0
0
0
0
0
0
0
0
0
0
0
0
0
0
0
0
0
0
0
0
0
0.00222710252432
0.138467600687
0.268935168809
0.398115388174
0.522086633461
0.635782536292
0.736040666522
0.821445227434
0.894549039475
0.955883792786
1
1
1
1
1
1
1
1
0.961832738004
0.867966325252
0.745594376912
0.57775485078
0.320918008067
0
0
0
0
0
0
0
0
0
0
0
0
0
0
0
0
0.243680805539
0.95774657125
1
1
1
1
1
1
1
1
1
1
1
1
1
1
1
0.848076321587
0.340370587367
0
0
0
0
0
0
0
0
0
0
0
0
0
0
0
0
0
0
0
0
0
0
0.0673254367714
0.204343697181
0.326098806897
0.442941656097
0.554335708848
0.657553224036
0.749797949437
0.829365772493
0.898358975631
0.957997176729
1
1
1
1
1
1
1
1
0.986900213814
0.894668706943
0.774023573577
0.609899626748
0.356649696045
0
0
0
0
0
0
0
0
0
0
0
0
0
0
0
0
0.509302763368
0.994229543584
1
1
1
1
1
1
1
1
1
1
1
1
1
1
0.963499010974
0.562487657233
0
0
0
0
0
0
0
0
0
0
0
0
0
0
0
0
0
0
0
0
0
0
0
0.122312677871
0.264466465526
0.380357361897
0.486600832136
0.586917523813
0.679756560724
0.763404553491
0.836723237658
0.901261270165
0.958741651932
1
1
1
1
1
1
1
1
0.999261316206
0.920214800164
0.800844386138
0.63991994049
0.389894731451
0
0
0
0
0
0
0
0
0
0
0
0
0
0
0
0
0.715165013222
1
1
1
1
1
1
1
1
1
1
1
1
1
1
0.999538156578
0.72725221353
0
0
0
0
0
0
0
0
0
0
0
0
0
0
0
0
0
0
0
0
0
0
0
0
0.162853212737
0.31635184026
0.430696126349
0.528499069711
0.618339497857
0.701421647646
0.77703002741
0.844079223362
0.903292987174
0.957993567502
1
1
1
1
1
1
1
1
1
0.942656963497
0.822350165271
0.665539875058
0.420218531372
0.0240401385083
0
0
0
0
0
0
0
0
0
0
0
0
0
0
0
0.852235257235
1
1
1
1
1
1
1
1
1
1
1
1
1
1
0.850074394264
0.308898670999
0
0
0
0
0
0
0
0
0
0
0
0
0
0
0
0
0
0
0
0
0
0
0
0.00591668596186
0.184778137528
0.356807159622
0.475023126517
0.56721032277
0.648450710153
0.722772000449
0.790047581536
0.850556198496
0.904663624423
0.955520399137
1
1
1
1
1
1
1
1
1
0.959379070591
0.840332278643
0.687372467135
0.449013295052
0.0629698257004
0
0
0
0
0
0
0
0
0
0
0
0
0
0
0
0.936561861728
1
1
1
1
1
1
1
1
1
1
1
1
1
0.939242004764
0.480074383939
0
0
0
0
0
0
0
0
0
0
0
0
0
0.792374849283
0
0
0
0
0
0
0
0
0
0
0.0165355684178
0.182470579443
0.382878333469
0.511319126466
0.602355695822
0.676902018536
0.742929594505
0.802924356774
0.856663151675
0.905227649327
0.951628839793
0.997117925155
1
1
1
1
1
1
1
1
0.974470769514
0.855481088802
0.707586919825
0.47555777323
0.102161223593
0
0
0
0
0
0
0
0
0
0
0
0
0
0
0.255752253739
0.983553330638
1
1
1
1
1
1
1
1
1
1
1
1
0.986866617227
0.604132049216
0
0
0
0
0
0
0
0
0
0
0
0
0
0
1
0
0
0
0
0
0
0
0
0
0
0.0182752647329
0.153743595728
0.388476114433
0.537332209977
0.632577992501
0.702925601586
0.762364522335
0.815057986865
0.862277534705
0.905012447125
0.946115201555
0.989102522682
1
1
1
1
1
1
1
1
0.9887233136
0.870378821621
0.726617052018
0.501828461126
0.143484025476
0
0
0
0
0
0
0
0
0
0
0
0
0
0
0.487597440663
1
1
1
1
1
1
1
1
1
1
1
1
1
0.713375933207
0
0
0
0
0
0
0
0
0
0
0
0
0
0
1
1
0
0
0
0
0
0
0
0
0
0
0.0129098922041
0.134555432949
0.367026207188
0.547761998033
0.655496440861
0.72629474973
0.780547256365
0.826696597116
0.867570243466
0.904263563319
0.939654751419
0.978844446
1
1
1
1
1
1
1
1
1
0.887432710756
0.743732688033
0.527853216665
0.185661176295
0
0
0
0
0
0
0
0
0
0
0
0
0
0
0.67500938055
1
1
1
1
1
1
1
1
1
1
1
1
0.814383337318
0.026726896518
0
0
0
0
0
0
0
0
0
0
0
0
0
1
1
1
0.391347687416
0
0
0
0
0
0
0
0
0
0.00413789624043
0.112267337232
0.312039877031
0.536660442187
0.66775201977
0.745166335906
0.797100384424
0.838188977593
0.872803097684
0.903415599231
0.932686790229
0.966557840054
1
1
1
1
1
1
1
1
1
0.900118472635
0.758510067189
0.55288946919
0.229374108751
0
0
0
0
0
0
0
0
0
0
0
0
0
0
0.819593274007
1
1
1
1
1
1
1
1
1
1
1
0.908229001557
0.314551036842
0
0
0
0
0
0
0
0
0
0
0
0
0
0
1
1
1
0.611680122931
0
0
0
0
0
0
0
0
0
0
0.0823600875728
0.242192548049
0.49538006019
0.663957216577
0.756902533185
0.811782267901
0.849106281544
0.878176134875
0.902938251883
0.92562301931
0.952701935846
0.990943851026
1
1
1
1
1
1
1
1
0.916051768571
0.777987420068
0.580268579433
0.275446744974
0
0
0
0
0
0
0
0
0
0
0
0
0
0
0.914169582096
1
1
1
1
1
1
1
1
1
1
0.979049779396
0.471952452394
0
0
0
0
0
0
0
0
0
0
0
0
0
0
1
1
1
1
0.692369613114
0
0
0
0
0
0
0
0
0
0
0.0475263916543
0.194359639914
0.414904986579
0.635144376459
0.757347711421
0.821998443767
0.859037867694
0.883967932948
0.903142614383
0.919431901051
0.938428917763
0.972839181698
1
1
1
1
1
1
1
1
0.929797646243
0.797565149233
0.60810992936
0.322652151337
0
0
0
0
0
0
0
0
0
0
0
0
0
0
0.967658917967
1
1
1
1
1
1
1
1
1
1
0.639498007936
0
0
0
0
0
0
0
0
0
0
0
0
0
0
0
1
1
1
1
0.690216277459
0.27861428149
0
0
0
0
0
0
0
0
0
0.015168814546
0.141153684544
0.315980291937
0.570766112231
0.73816894122
0.824130970965
0.866733162021
0.889969802484
0.904310289439
0.914366649076
0.92523428103
0.952566103537
0.991675247374
1
1
1
1
1
1
1
0.940714560985
0.816734887746
0.636927452322
0.371270602286
0
0
0
0
0
0
0
0
0
0
0
0
0
0.162083965254
0.993835965417
1
1
1
1
1
1
1
1
1
0.803414659752
0.00824605262039
0
0
0
0
0
0
0
0
0
0
0
0
0
0
1
1
1
1
1
0.653708915459
0.57221606608
0
0
0
0
0
0
0
0
0
0
0.0832941855609
0.248041039035
0.459957366142
0.688331705392
0.811548257386
0.869426962669
0.89522349291
0.90643344214
0.911218493776
0.914430225889
0.930545704624
0.968894960557
1
1
1
1
1
1
1
0.952859594798
0.837557362193
0.668399594586
0.421359937469
0.0673064525134
0
0
0
0
0
0
0
0
0
0
0
0
0.344443751092
1
1
1
1
1
1
1
1
1
0.943188902939
0.295203124621
0
0
0
0
0
0
0
0
0
0
0
0
0
0
0.474481135928
1
1
1
1
1
0.611279600248
0.68391893801
0
0
0
0
0
0
0
0
0
0
0.0294423998222
0.173939612984
0.351905113321
0.59263888816
0.772968155758
0.860824533134
0.897267317534
0.908901995907
0.909731403168
0.90653094977
0.90729834229
0.94429127129
0.980011648713
1
1
1
1
1
1
0.961892187607
0.856556313655
0.700420234225
0.471812108381
0.146250077554
0
0
0
0
0
0
0
0
0
0
0
0
0.496135130968
1
1
1
1
1
1
1
1
0.999886242367
0.569453083964
0
0
0
0
0
0
0
0
0
0
0
0
0
0
0
1
1
1
1
1
0.889325566371
0.570075236711
0.694391302422
0.239183882205
0
0
0
0
0
0
0
0
0
0
0.0948502705801
0.267785969934
0.448342665344
0.692679955375
0.831163972422
0.891078505469
0.909763935479
0.909353778755
0.901237752575
0.89233070134
0.917733224115
0.952578679413
0.986573879622
1
1
1
1
1
0.9696575907
0.875023958056
0.731799783968
0.522908338582
0.224235744506
0
0
0
0
0
0
0
0
0
0
0
0
0.618981850854
1
1
1
1
1
1
1
1
0.802177522971
0
0
0
0
0
0
0
0
0
0
0
0
0
0
0
1
1
1
1
1
1
0.460947094891
0.531844868695
0.662760061253
0.467852040376
0
0
0
0
0
0
0
0
0
0
0.0262436856061
0.173432255225
0.351857289393
0.554032970045
0.762945835319
0.867345280342
0.905040145254
0.908989421651
0.898135889956
0.883163043537
0.890351181526
0.923456615533
0.957995622738
0.992366425015
1
1
1
1
0.97114012872
0.890698349187
0.763022398031
0.573504531616
0.300367194544
0
0
0
0
0
0
0
0
0
0
0
0
0.716690514569
1
1
1
1
1
1
1
0.967666703248
0.352806894378
0
0
0
0
0
0
0
0
0
0
0
0
0
0
1
1
1
1
1
1
1
0.170161644613
0.498343401278
0.627597521069
0.54749293808
0.014686902829
0
0
0
0
0
0
0
0
0
0
0.0778519722909
0.25005839683
0.419181263618
0.635741172666
0.808403570317
0.885011527929
0.904375656256
0.896102262494
0.877259165987
0.861786684391
0.893119547357
0.927299761388
0.962168432317
0.992135730693
1
1
1
0.968876849127
0.904589173127
0.792524761694
0.621695046474
0.375193182892
0.0336354160191
0
0
0
0
0
0
0
0
0
0
0
0.791705643026
1
1
1
1
1
1
1
0.675251325516
0
0
0
0
0
0
0
0
0
0
0
0
0
0
0.19154014964
1
1
1
1
1
1
0.785082968508
0
0.469938414203
0.597439173595
0.54495034135
0.303093215599
0
0
0
0
0
0
0
0
0
0
0.00767601107769
0.137041725288
0.314234369752
0.468147519068
0.691601797706
0.83327721419
0.886469587048
0.890376752151
0.872246899915
0.847865053454
0.860834546623
0.892878050426
0.928984837791
0.959989983738
0.983038089996
0.991660193563
0.987168871222
0.965516189513
0.914436669434
0.818877467699
0.668716190106
0.447037289094
0.134930561648
0
0
0
0
0
0
0
0
0
0
0
0.846559997331
1
1
1
1
1
1
0.905997651596
0.200022905252
0
0
0
0
0
0
0
0
0
0
0
0
0
0
0.620124611629
1
1
1
1
1
1
0.604314790151
0
0.44657515608
0.572499986565
0.524784613168
0.419547996541
0
0
0
0
0
0
0
0
0
0
0
0.03484114747
0.191876044988
0.360226424342
0.509156330407
0.723983388375
0.839649100102
0.874063968211
0.865510279024
0.840283896738
0.826399301175
0.855717534891
0.891435783024
0.925845774015
0.952011441081
0.966442845476
0.97079295215
0.956971923938
0.920328169385
0.842614131657
0.712473984953
0.516032801323
0.233571766765
0
0
0
0
0
0
0
0
0
0
0
0.883313060466
1
1
1
1
1
1
0.595269469092
0
0
0
0
0
0
0
0
0
0
0
0
0
0
0
0.836383620275
1
1
1
1
1
1
0.532290848762
0
0.428365283397
0.551728991485
0.509869646752
0.436241113666
0.255759688067
0
0
0
0
0
0
0
0
0
0
0
0.0677574616977
0.233758833763
0.384827647932
0.538043602874
0.735642517657
0.829693502751
0.848270044876
0.83042351913
0.801331837642
0.815714520965
0.850048670041
0.886844376971
0.91790339088
0.939574329506
0.949889593507
0.948660236513
0.92538635649
0.864652594501
0.754794069351
0.581933466755
0.327732220309
0
0
0
0
0
0
0
0
0
0
0
0.904648032255
1
1
1
1
1
0.86340349966
0.133584210328
0
0
0
0
0
0
0
0
0
0
0
0
0
0
0
0.941864838112
1
1
1
1
1
1
0.529667726128
0.0112110438693
0.41323100602
0.534330899341
0.498850042985
0.417270863868
0.369777178155
0.0060214194629
0
0
0
0
0
0
0
0
0
0
0
0.0955351639228
0.257153133402
0.391258106381
0.547451154104
0.728147939186
0.804108381817
0.810804592936
0.787761709496
0.770674111545
0.80444323507
0.843156535176
0.880267606224
0.908160359844
0.927540689326
0.933745154603
0.926364571961
0.88365011063
0.793927702606
0.645410659851
0.419226951927
0.0807348818053
0
0
0
0
0
0
0
0
0
0
0.912282949285
1
1
1
1
0.994680594603
0.566006067431
0
0
0
0
0
0
0
0
0
0
0
0
0
0
0
0.153152880873
0.980386505972
1
1
1
1
1
1
0.567149958438
0.0837133613851
0.400266498877
0.519312860881
0.488036093392
0.396328117262
0.380228872576
0.244167549653
0
0
0
0
0
0
0
0
0
0
0
0.000761350682777
0.1108352573
0.259693886616
0.381529407488
0.537044574027
0.703017622543
0.764717349136
0.763800277198
0.73879445047
0.752142141588
0.793228110516
0.836172053434
0.873227062253
0.900215640261
0.91884217948
0.924203886045
0.902271283457
0.832776994426
0.7094754297
0.513152896194
0.207316447352
0
0
0
0
0
0
0
0
0
0
0.907278226403
1
1
1
1
0.840540098344
0.143413231628
0
0
0
0
0
0
0
0
0
0
0
0
0
0
0
0.228079938523
0.965571087741
1
1
1
1
1
1
0.625144326189
0.138939294394
0.391520729726
0.505107851476
0.474036064737
0.374337344915
0.355475462464
0.316350600811
0
0
0
0
0
0
0
0
0
0
0
0
0.000430868096199
0.108332964704
0.242337644771
0.357475069162
0.507897715386
0.660933476905
0.713334946115
0.709408170541
0.688290429735
0.735286646081
0.784905948513
0.831351848962
0.869986406172
0.898917231367
0.921161637801
0.921776808654
0.876063938987
0.775805057249
0.606084255723
0.332144011773
0
0
0
0
0
0
0
0
0
0
0.889341663086
1
1
1
0.977131263874
0.57064352353
0
0
0
0
0
0
0
0
0
0
0
0
0
0
0
0
0.230814507919
0.908444534656
1
1
1
1
1
1
0.69186493366
0.20317329749
0.388470463772
0.48868278352
0.45397060383
0.349099701279
0.324098629834
0.293729443283
0.155762645082
0
0
0
0
0
0
0
0
0
0
0
0
0
0.0865562820251
0.207332867705
0.318608439762
0.459820233698
0.602830750382
0.651266750146
0.649938264558
0.663073390561
0.722506291056
0.780375633767
0.831229356072
0.873610040264
0.902838097513
0.929071195071
0.912873497796
0.838677502093
0.695883139473
0.453564688798
0.1283653857
0
0
0
0
0
0
0
0
0
0.858208206277
1
1
1
0.820967003836
0.0256642045711
0
0
0
0
0
0
0
0
0
0
0
0
0
0
0
0
0.205156668906
0.829884979379
1
1
1
1
1
1
0.759800125773
0.273856049352
0.387334144641
0.467611503813
0.426428328014
0.318524260446
0.288459671212
0.255738567397
0.201496571024
0
0
0
0
0
0
0
0
0
0
0
0
0
0
0.0464670456287
0.155880796419
0.263534388359
0.39397366298
0.531316477641
0.58267819217
0.590318320396
0.644878948798
0.718524806662
0.784245809061
0.839989839268
0.883189645159
0.924787269769
0.938935488595
0.89330734131
0.779225595047
0.568810648989
0.269679285858
0
0
0
0
0
0
0
0
0
0.811075282588
1
1
0.938546005363
0.578991587502
0
0
0
0
0
0
0
0
0
0
0
0
0
0
0
0
0
0.150338472613
0.73044983911
1
1
1
1
1
1
0.813338272491
0.35243914168
0.381117992908
0.440853436104
0.390894668145
0.282756603796
0.250993289483
0.225129256004
0.193097538206
0.123610556034
0
0
0
0
0
0
0
0
0
0
0
0
0
0
0
0.0887289238168
0.192332794378
0.312244450825
0.4486019789
0.511380515584
0.539510638256
0.639529942275
0.727728115194
0.801103685543
0.859813779377
0.908398256226
0.950740441496
0.936526409589
0.852209202284
0.67427597976
0.402357551476
0
0
0
0
0
0
0
0
0
0.74684387067
0.974560430904
0.964887291853
0.78431386728
0
0
0
0
0
0
0
0
0
0
0
0
0
0
0
0
0
0
0.0752466062208
0.608263549768
1
1
1
1
1
1
0.794394227328
0.426632199529
0.364213086757
0.410457618927
0.347336992373
0.243927581661
0.214924610602
0.205737105524
0.188803693282
0.170449584919
0.0712041877093
0
0
0
0
0
0
0
0
0
0
0
0
0
0
0
0.00802620697789
0.107707315405
0.219408981543
0.357116724189
0.440484508079
0.525439351672
0.648229313847
0.750215836474
0.828755704436
0.89011333524
0.952047474975
0.964643363599
0.908424870918
0.762667920895
0.520137033518
0
0
0
0
0
0
0
0
0
0.658504677155
0.893940477171
0.849389590569
0.33004808339
0
0
0
0
0
0
0
0
0
0
0
0
0
0
0
0
0
0
0
0.43995655062
0.818487174057
1
1
1
1
0.951292113722
0.762084127304
0.491265613765
0.338693836619
0.378214068781
0.295539608616
0.207446868881
0.179832128594
0.18888164253
0.188842357948
0.188467256165
0.174789489609
0.0433479483477
0
0
0
0
0
0
0
0
0
0
0
0
0
0
0
0
0.0129857435939
0.120503836381
0.259559160015
0.376202025656
0.537969126795
0.683932552684
0.797125019336
0.873080111116
0.946842444769
0.977782952642
0.945582964466
0.830834380132
0.621325085847
0
0
0
0
0
0
0
0
0
0.410800659917
0.790271498767
0.556125487089
0
0
0
0
0
0
0
0
0
0
0
0
0
0
0
0
0
0
0
0
0.232585124717
0.604187673632
0.855315926861
0.9824433349
1
0.946982383363
0.858145553729
0.726383464706
0.546577074564
0.29844618975