/*--------------------------------*- C++ -*----------------------------------*\
| =========                 |                                                 |
| \\      /  F ield         | OpenFOAM: The Open Source CFD Toolbox           |
|  \\    /   O peration     | Version:  v1806                                 |
|   \\  /    A nd           | Web:      www.OpenFOAM.com                      |
|    \\/     M anipulation  |                                                 |
\*---------------------------------------------------------------------------*/
FoamFile
{
    version     2.0;
    format      ascii;
    class       volScalarField;
    location    "100";
    object      alpha;
}
// * * * * * * * * * * * * * * * * * * * * * * * * * * * * * * * * * * * * * //

dimensions      [0 0 -1 0 0 0 0];


internalField   nonuniform List<scalar> 
6400
(
0.00921948155932
0.0212382748304
0.183830161496
0.446759592543
0.584203887701
0.605370145031
0.512294453564
0.404248293445
0.218380590034
0
0
0
0
0
0
0
0
0
0
0
0
0
0
0
0
0
0
0
0
0
0
0
0
0
0
0
0
0
0
0
0
0
0
0
0
0
0
0
0
0
0
0
0
0
0
0
0
0
0
0.0151257831967
0.0558809586181
0.00460480415022
0
0
0
0
0
0
0
0
0
0
0
0
0
0
0
0
0.0881525986971
0.0701196450957
0.0871803305036
0.234965517451
0.335627576662
0.37772894638
0.372062279066
0.220708487334
0
0
0
0
0
0
0
0
0
0
0
0
0
0
0
0
0
0
0
0
0
0
0
0
0
0
0
0
0
0
0
0
0
0
0
0
0
0
0
0
0
0
0
0
0
0
0
0
0
0
0
0
0
0
0
0
0
0
0
0
0
0
0
0
0
0
0
0
0
0
0
0
0
0.0299360149024
0.200024017648
0.290864439781
0.162183985374
0.019180669152
0
0
0
0
0
0
0
0
0
0
0
0
0
0
0
0
0
0
0
0
0
0
0
0
0
0
0
0
0
0
0
0
0
0
0
0
0
0
0
0
0
0
0
0
0
0
0
0
0
0
0
0
0
0
0
0
0
0
0
0
0
0
0
0
0
0
0
0
0
0
0
0
0
0
0
0
0.198822162109
0.239488248592
0
0
0
0
0
0
0
0
0
0
0
0
0
0
0
0
0
0
0
0
0
0
0
0
0
0
0
0
0
0
0
0
0
0
0
0
0
0
0
0
0
0
0
0
0
0
0
0
0
0
0
0
0
0
0
0
0
0
0
0
0
0
0
0
0
0
0
0
0
0
0
0
0
0
0
0
0
0
0.168268284124
0
0
0
0
0
0
0
0
0
0
0
0
0
0
0
0
0
0
0
0
0
0
0
0
0
0
0
0
0
0
0
0
0
0
0
0
0
0
0
0
0
0
0
0
0
0
0
0
0
0
0
0
0
0
0
0
0
0
0
0
0
0
0
0
0
0
0
0
0
0
0
0
0
0
0
0
0
0
0
0.128535272858
0
0
0
0
0
0
0
0
0
0
0
0
0
0
0
0
0
0
0
0
0
0
0
0
0
0
0
0
0
0
0
0
0
0
0
0
0
0
0
0
0
0
0
0
0
0
0
0
0
0
0
0
0
0
0
0
0
0
0
0
0
0
0
0
0
0
0
0
0
0
0
0
0
0
0
0
0
0
0
0
0
0
0
0
0
0
0
0
0
0
0
0
0
0
0
0
0
0
0
0
0
0
0
0
0
0
0
0
0
0
0
0
0
0
0
0
0
0
0
0
0
0
0
0
0
0
0
0
0
0
0
0
0
0
0
0
0
0
0
0
0
0
0
0
0
0
0
0
0
0
0
0
0
0
0
0
0
0
0
0
0
0
0
0
0
0
0
0
0
0
0
0
0
0
0
0
0
0
0
0
0
0
0
0
0
0
0
0
0
0
0
0
0
0
0
0
0
0
0
0
0
0
0
0
0
0
0
0
0
0
0
0
0
0
0
0
0
0
0
0
0
0
0
0
0
0
0
0
0
0
0
0
0
0
0
0
0
0
0
0
0
0
0
0
0
0
0
0
0
0
0
0
0
0
0
0
0
0
0
0
0
0
0
0
0
0
0
0
0
0
0
0
0
0
0
0
0
0
0
0
0
0
0
0
0
0
0
0
0
0
0
0
0
0
0
0
0
0
0
0
0
0
0
0
0
0
0
0
0
0
0
0
0
0
0
0
0
0
0
0
0
0
0
0
0
0
0
0
0
0
0
0
0
0
0
0
0
0
0
0
0
0
0
0
0
0
0
0
0
0
0
0
0
0
0
0
0
0
0
0
0
0
0
0
0
0
0
0
0
0
0
0
0
0
0
0
0
0
0
0
0
0
0
0
0
0
0
0
0
0
0
0
0
0
0
0
0
0
0
0
0
0
0
0
0
0
0
0
0
0
0
0
0
0
0
0
0
0
0
0
0
0
0
0
0
0
0
0
0
0
0
0
0
0
0
0
0
0
0
0
0
0
0
0
0
0
0
0
0
0
0
0
0
0
0
0
0
0
0
0
0
0
0
0
0
0
0
0
0
0
0
0
0
0
0
0
0
0
0
0
0
0
0
0
0
0
0
0
0
0
0
0
0
0
0
0
0
0
0
0
0
0
0
0
0
0
0
0
0
0
0
0
0
0
0
0
0
0
0
0
0
0
0
0
0
0
0
0
0
0
0
0
0
0
0
0
0
0
0
0
0
0
0
0
0
0
0
0
0
0
0
0
0
0
0
0
0
0
0
0
0
0
0
0
0
0
0
0
0
0
0
0
0
0
0
0
0
0
0
0
0
0
0
0
0
0
0
0
0
0
0
0
0
0
0
0
0
0
0
0
0
0
0
0
0
0
0
0
0
0
0
0
0
0
0
0
0
0
0
0
0
0
0
0
0.224198212416
0.454055715178
0.483719336484
0.294429887958
0
0
0
0
0
0
0
0
0
0
0
0
0
0
0
0
0
0
0
0
0
0
0
0
0
0
0
0
0
0
0
0
0
0
0
0
0
0
0
0
0
0
0
0
0
0
0
0
0
0
0
0
0
0
0
0
0
0
0
0
0
0
0
0
0
0
0
0
0
0
0
0
0
0
0
0.507021972054
0.893705134019
1
1
0.990649797393
0.6184131686
0
0
0
0
0
0
0
0
0
0
0
0
0
0
0
0
0
0
0
0
0
0
0
0
0
0
0
0
0
0
0
0
0
0
0
0
0
0
0
0.0013138480473
0.0020192318519
0.00182553720843
0.00111720349121
0.000400997952445
0
0
0
0
0
0
0
0
0
0
0
0
0
0
0
0
0
0
0
0
0
0
0
0
0
0
0
0
0
0.547914178919
0.979759204654
1
1
1
1
1
0.652859794847
0
0
0
0
0
0
0
0
0
0
0
0
0
0
0
0
0
0
0
0
0
0
0
0
0
0
0
0
0
0
0
0
0
0
0
0.000212711822957
0.00390048447636
0.00644479483852
0.00769383408902
0.00796884764314
0.00701729337387
0.00529540481985
0.00322245288263
0.00146029812734
0.000236398503194
0
0
0
0
0
0
0
0
0
0
0
0
0
0
0
0
0
0
0
0
0
0
0
0
0
0
0.406610540238
0.946085985479
1
1
1
1
1
1
1
0.412504770958
0
0
0
0
0
0
0
0
0
0
0
0
0
0
0
0
0
0
0
0
0
0
0
0
0
0
0
0
0
0
0
0
0.00538224480878
0.0104631462286
0.0139196501038
0.0155376419901
0.0154473084293
0.0147796139096
0.0131812268816
0.0109997237379
0.00863357616428
0.0062312598326
0.00372070933979
0.00144612613696
0
0
0
0
0
0
0
0
0
0
0
0
0
0
0
0
0
0
0
0
0
0
0
0
0
0.0963894694539
0.849165791492
1
1
1
1
1
1
1
1
1
0
0
0
0
0
0
0
0
0
0
0
0
0
0
0
0
0
0
0
0
0
0
0
0
0
0
0.00499898647021
0.00897110477102
0.0127702628777
0.0176617682641
0.0230844856791
0.0266097126126
0.0293649163432
0.0300926467724
0.0290896267543
0.0266842797635
0.0237326800437
0.020125857884
0.0169926638258
0.0140073369317
0.0114633920552
0.00866312634807
0.00550105741052
0.00208928845994
0
0
0
0
0
0
0
0
0
0
0
0
0
0
0
0
0
0
0
0
0
0
0
0
0
0.661006189699
0.986079756999
1
1
1
1
1
1
1
1
1
0.915876134839
0
0
0
0
0
0
0
0
0
0
0
0
0
0
0
0
0
0
0
0
0
0
0
0
0.0118579773249
0.0270396285054
0.0344553255188
0.0402363915304
0.0459032787137
0.0503929432303
0.0517956910966
0.0498045257727
0.0456066833114
0.04023149639
0.0340245608236
0.0282893613047
0.0235679637999
0.0195742547639
0.0164548476196
0.0135141700773
0.0100387853739
0.00568865642977
0.00081201771613
0
0
0
0
0
0
0
0
0
0
0
0
0
0
0
0
0
0
0
0
0
0
0
0
0.315456031113
0.906820775578
1
1
1
1
1
1
1
1
1
1
1
0.443062285608
0
0
0
0
0
0
0
0
0
0
0
0
0
0
0
0
0
0
0
0
0
0
0.0023560568267
0.029040904679
0.0460503886082
0.0556586050732
0.0620449321133
0.0665407879771
0.0682172237192
0.0665299426734
0.0598484231768
0.0520879275538
0.0441721337057
0.0364645364929
0.0299803403992
0.0251184761461
0.0211922420695
0.0178489650086
0.0141390745729
0.00918759946023
0.00313187491791
0
0
0
0
0
0
0
0
0
0
0
0
0
0
0
0
0
0
0
0
0
0
0
0
0
0.720890106742
0.995642787945
1
1
1
1
1
1
1
1
1
1
1
0.995453762812
0
0
0
0
0
0
0
0
0
0
0
0
0
0
0
0
0
0
0
0
0
0
0.0100973444504
0.0369050008777
0.0560476624901
0.0931021669355
0.152868219192
0.192789693262
0.214290547207
0.212258691071
0.189087510033
0.139547999649
0.0619762162669
0.0352411865295
0.029812237628
0.0254312911049
0.0218199934684
0.0176947260534
0.0123955116952
0.00542019698648
0
0
0
0
0
0
0
0
0
0
0
0
0
0
0
0
0
0
0
0
0
0
0
0
0
0.405170322286
0.925060862412
1
1
1
1
1
1
1
1
1
1
1
1
1
0
0
0
0
0
0
0
0
0
0
0
0
0
0
0
0
0
0
0
0
0
0
0.013031741034
0.041385560514
0.160199259489
0.244869737716
0.300744719992
0.333949549118
0.349711847459
0.346696984137
0.321360913072
0.272480261739
0.194597279103
0.0764975959007
0.0289405861115
0.0250743255038
0.0209820037799
0.0154202725687
0.00781894454897
0
0
0
0
0
0
0
0
0
0
0
0
0
0
0
0
0
0
0
0
0
0
0
0
0
0
0.736854612537
0.997512490494
1
1
1
1
1
1
1
1
1
1
1
1
1
0.440620118487
0
0
0
0
0
0
0
0
0
0
0
0
0
0
0
0
0
0
0
0
0
0.014752117713
0.158667030764
0.279104569754
0.36077915517
0.408966839307
0.437582732849
0.452028845674
0.449239697581
0.422369942556
0.373697486719
0.296697246575
0.182710945575
0.0281649564759
0.0238627250813
0.0184070527424
0.0103244516273
0.000764649200375
0
0
0
0
0
0
0
0
0
0
0
0
0
0
0
0
0
0
0
0
0
0
0
0
0
0.398081446784
0.923990368963
1
1
1
1
1
1
1
1
1
1
1
1
1
1
0.932504202548
0
0
0
0
0
0
0
0
0
0
0
0
0
0
0
0
0
0
0
0
0
0.0853036545501
0.254103413747
0.371269923134
0.44522555137
0.489634401978
0.518680918035
0.532707036321
0.530448667406
0.504733115359
0.455807744253
0.379919986979
0.272430446533
0.122521045189
0.0213258536622
0.0132925699186
0.00276248627684
0
0
0
0
0
0
0
0
0
0
0
0
0
0
0
0
0
0
0
0
0
0
0
0
0
0
0.718527572257
0.996539228927
1
1
1
1
1
1
1
1
1
1
1
1
1
1
1
0
0
0
0
0
0
0
0
0
0
0
0
0
0
0
0
0
0
0
0
0
0.164622704601
0.32786322111
0.439815120023
0.508583991552
0.554048396729
0.583955725915
0.598516787372
0.597925620746
0.575053901605
0.528732082555
0.455401041701
0.353002471915
0.211357563716
0.0358805650575
0.00588078044593
0
0
0
0
0
0
0
0
0
0
0
0
0
0
0
0
0
0
0
0
0
0
0
0
0
0
0.339629542535
0.906623371805
1
1
1
1
1
1
1
1
1
1
1
1
1
1
1
1
0.186739520095
0
0
0
0
0
0
0
0
0
0
0
0
0
0
0
0
0
0
0
0.000710886769428
0.227793413141
0.384648784439
0.491068222217
0.558610276134
0.60669878289
0.637953189151
0.654179483642
0.656460171762
0.63754092151
0.595893684833
0.526735008546
0.428665116633
0.294287324382
0.125302590247
0
0
0
0
0
0
0
0
0
0
0
0
0
0
0
0
0
0
0
0
0
0
0
0
0
0
0
0.665813856383
0.99115911576
1
1
1
1
1
1
1
1
1
1
1
1
1
1
1
1
0.90469041666
0
0
0
0
0
0
0
0
0
0
0
0
0
0
0
0
0
0
0
0.054654230461
0.277354014083
0.428317646274
0.531213107645
0.599665488578
0.650468670755
0.683728376315
0.703122510366
0.708193833171
0.693295616847
0.656881708091
0.593249558436
0.499074448483
0.370797786901
0.207448667763
0.0211265979473
0
0
0
0
0
0
0
0
0
0
0
0
0
0
0
0
0
0
0
0
0
0
0
0
0
0.221434936941
0.869310801853
1
1
1
1
1
1
1
1
1
1
1
1
1
1
1
1
1
1
0
0
0
0
0
0
0
0
0
0
0
0
0
0
0
0
0
0
0
0.100143708169
0.31576167097
0.461462175477
0.564226841323
0.634762432539
0.687734565758
0.724090365398
0.746255149001
0.753977137795
0.744056591305
0.711635339748
0.653765888212
0.564404630472
0.439313357626
0.280178892862
0.0939795493739
0
0
0
0
0
0
0
0
0
0
0
0
0
0
0
0
0
0
0
0
0
0
0
0
0
0.571059950598
0.975531180471
1
1
1
1
1
1
1
1
1
1
1
1
1
1
1
1
1
1
0
0
0
0
0
0
0
0
0
0
0
0
0
0
0
0
0
0
0
0.13570557555
0.344588716517
0.48886904988
0.591537475867
0.665395260086
0.720848851758
0.759700236318
0.784284726223
0.794506088952
0.789151136928
0.759952616005
0.707574792247
0.623126979194
0.501837158586
0.343957836309
0.157029493482
0
0
0
0
0
0
0
0
0
0
0
0
0
0
0
0
0
0
0
0
0
0
0
0
0
0.801620411329
1
1
1
1
1
1
1
1
1
1
1
1
1
1
1
1
1
1
1
0
0
0
0
0
0
0
0
0
0
0
0
0
0
0
0
0
0
0
0.165106230742
0.368486746006
0.511647819054
0.615537502358
0.691723961351
0.749520995972
0.790726644221
0.817704235651
0.832253897235
0.828762699586
0.804342183145
0.754048055077
0.674015574178
0.556087599057
0.400287195063
0.211589688131
0
0
0
0
0
0
0
0
0
0
0
0
0
0
0
0
0
0
0
0
0
0
0
0
0.416026162307
0.938586567985
1
1
1
1
1
1
1
1
1
1
1
1
1
1
1
1
1
1
1
0
0
0
0
0
0
0
0
0
0
0
0
0
0
0
0
0
0
0
0.187828493226
0.387416826203
0.53166965026
0.637302909155
0.715779820422
0.774959367936
0.818652424608
0.849165454532
0.865233540073
0.863600797362
0.842474991323
0.795376043856
0.717094642909
0.602457750919
0.449131519677
0.260714591922
0.0481917469588
0
0
0
0
0
0
0
0
0
0
0
0
0
0
0
0
0
0
0
0
0
0
0
0.687191432742
0.997186390762
1
1
1
1
1
1
1
1
1
1
1
1
1
1
1
1
1
1
0.621973285114
0
0
0
0
0
0
0
0
0
0
0
0
0
0
0
0
0
0
0
0.207178576802
0.404204946449
0.54970421596
0.656908141625
0.737126884008
0.798380536382
0.844117953568
0.876320812353
0.893842054113
0.895252689641
0.874344947377
0.830939868018
0.755435011611
0.642162213736
0.491852864979
0.307203800482
0.092039496686
0
0
0
0
0
0
0
0
0
0
0
0
0
0
0
0
0
0
0
0
0
0
0.170419389113
0.86486831408
1
1
1
1
1
1
1
1
1
1
1
1
1
1
1
1
1
1
1
0.0143200043397
0
0
0
0
0
0
0
0
0
0
0
0
0
0
0
0
0
0
0
0.224493576396
0.419307222108
0.567177265567
0.675101546022
0.756740792286
0.818849477392
0.866247823526
0.900655233209
0.92034063701
0.92150392086
0.90322072398
0.860208294805
0.788226079899
0.678937658889
0.53015900077
0.349926714332
0.133774678244
0
0
0
0
0
0
0
0
0
0
0
0
0
0
0
0
0
0
0
0
0
0
0.501866430535
0.966248176991
1
1
1
1
1
1
1
1
1
1
1
1
1
1
1
1
1
1
0.912089683527
0
0
0
0
0
0
0
0
0
0
0
0
0
0
0
0
0
0
0
0
0.241149079738
0.433973556309
0.583598953705
0.692195258678
0.774145699265
0.838217720562
0.887226989066
0.922563110114
0.942219656477
0.944863133327
0.927256102018
0.886308313474
0.815662596091
0.710643117408
0.567133266159
0.390113006974
0.178316812736
0
0
0
0
0
0
0
0
0
0
0
0
0
0
0
0
0
0
0
0
0
0
0.733855585872
1
1
1
1
1
1
1
1
1
1
1
1
1
1
1
1
1
1
1
0
0
0
0
0
0
0
0
0
0
0
0
0
0
0
0
0
0
0
0
0
0.256850455637
0.448468515837
0.599458295275
0.707552137018
0.790734422838
0.855268294368
0.905210853085
0.941788447436
0.962522278769
0.964811794724
0.947342020081
0.908916823846
0.841332389099
0.738643975325
0.600931911443
0.427592274704
0.223818439116
0
0
0
0
0
0
0
0
0
0
0
0
0
0
0
0
0
0
0
0
0
0.199180397063
0.886364694736
1
1
1
1
1
1
1
1
1
1
1
1
1
1
1
1
1
1
0.967901820374
0
0
0
0
0
0
0
0
0
0
0
0
0
0
0
0
0
0
0
0
0.00703056744763
0.273301037346
0.464342929701
0.615290452335
0.722072053791
0.805370559789
0.870994186551
0.922356515579
0.959238601212
0.979265300662
0.981650649476
0.966015202939
0.927587783988
0.864328953867
0.767285177409
0.632664652885
0.46693600511
0.269583289412
0.000137280609974
0
0
0
0
0
0
0
0
0
0
0
0
0
0
0
0
0
0
0
0
0.510525089757
0.971751905206
1
1
1
1
1
1
1
1
1
1
1
1
1
1
1
1
1
1
0
0
0
0
0
0
0
0
0
0
0
0
0
0
0
0
0
0
0
0
0
0.0341329550257
0.291734142517
0.480923643354
0.63038930632
0.735832037323
0.818859643453
0.885466467962
0.937438363869
0.974476886841
0.994650631004
0.997199907213
0.981259409039
0.946532599728
0.884745221477
0.793315871738
0.665841841746
0.506332743876
0.312128392188
0.0664640770762
0
0
0
0
0
0
0
0
0
0
0
0
0
0
0
0
0
0
0
0
0.729151300745
1
1
1
1
1
1
1
1
1
1
1
1
1
1
1
1
1
1
0.910855902281
0
0
0
0
0
0
0
0
0
0
0
0
0
0
0
0
0
0
0
0
0
0.0641885355697
0.313371186455
0.498484171295
0.644323517831
0.748403369801
0.831702635215
0.898425209668
0.951212215734
0.988038895941
1
1
0.996439673145
0.962947832594
0.906476666265
0.819458914318
0.697494491361
0.545163811243
0.358139604507
0.134703362651
0
0
0
0
0
0
0
0
0
0
0
0
0
0
0
0
0
0
0
0.104893096399
0.874855433186
1
1
1
1
1
1
1
1
1
1
1
1
1
1
1
1
1
1
0.297830571051
0
0
0
0
0
0
0
0
0
0
0
0
0
0
0
0
0
0
0
0
0
0.0985695160761
0.335919170233
0.517029118006
0.656657618763
0.760029878506
0.843771233782
0.911042329407
0.963790956348
1
1
1
1
0.97947770835
0.926123236321
0.846239437088
0.731053425936
0.586023774546
0.407737814538
0.20089862039
0
0
0
0
0
0
0
0
0
0
0
0
0
0
0
0
0
0
0
0.433519561454
0.961055642334
1
1
1
1
1
1
1
1
1
1
1
1
1
1
1
1
1
0.799184499994
0
0
0
0
0
0
0
0
0
0
0
0
0
0
0
0
0
0
0
0
0
0
0.13437467717
0.358510802093
0.534011698131
0.668054766188
0.771473229462
0.85546380996
0.922725085358
0.974441108348
1
1
1
1
0.99584674643
0.947419984809
0.871809410162
0.763737786045
0.627205077631
0.4652655132
0.263473400144
0
0
0
0
0
0
0
0
0
0
0
0
0
0
0
0
0
0
0
0.666465193798
0.997875569221
1
1
1
1
1
1
1
1
1
1
1
1
1
1
1
1
0.967027169186
0.43500021278
0
0
0
0
0
0
0
0
0
0
0
0
0
0
0
0
0
0
0
0
0
0
0.171993939707
0.380095894634
0.548538484179
0.679638067458
0.782895227349
0.866474750226
0.933032253545
0.984417967495
1
1
1
1
1
0.968490571686
0.900671399699
0.799140801382
0.669171385023
0.518085483725
0.323078912769
0.0541165619569
0
0
0
0
0
0
0
0
0
0
0
0
0
0
0
0
0
0
0.825561328921
1
1
1
1
1
1
1
1
1
1
1
1
1
1
1
1
1
0.745865851901
0.0159383304527
0
0
0
0
0
0
0
0
0
0
0
0
0
0
0
0
0
0
0
0
0
0.00960586050625
0.212539606707
0.403680509226
0.563829026177
0.691730545757
0.793977720234
0.876559329964
0.942127674841
0.99288196336
1
1
1
1
1
0.989398503501
0.927926749923
0.83351213177
0.713222686467
0.56881899029
0.37998335397
0.110588228499
0
0
0
0
0
0
0
0
0
0
0
0
0
0
0
0
0
0.221059207799
0.927491781536
1
1
1
1
1
1
1
1
1
1
1
1
1
1
1
1
0.93015081361
0.431624823634
0
0
0
0
0
0
0
0
0
0
0
0
0
0
0
0
0
0
0
0
0
0
0.0708210916743
0.255529974633
0.430271220745
0.580822962361
0.704166327811
0.804353249421
0.885514234148
0.949839998582
0.999756124553
1
1
1
1
1
1
0.955865692733
0.867340026669
0.755030214991
0.615859665367
0.431404593939
0.163024703859
0
0
0
0
0
0
0
0
0
0
0
0
0
0
0
0
0
0.508960349635
0.983703451556
1
1
1
1
1
1
1
1
1
1
1
1
1
1
1
0.999714904119
0.701914282616
0.0467658660252
0
0
0
0
0
0
0
0
0
0
0
0
0
0
0
0
0
0
0
0
0
0
0.13325251453
0.300374482025
0.459436160075
0.599530682848
0.717525430538
0.814002778915
0.893176013821
0.956549313331
1
1
1
1
1
1
1
0.983161047872
0.90132066886
0.791537247663
0.661007169102
0.478964706199
0.211365390267
0
0
0
0
0
0
0
0
0
0
0
0
0
0
0
0
0
0.713678752054
1
1
1
1
1
1
1
1
1
1
1
1
1
1
1
1
0.892127149523
0.393501489653
0
0
0
0
0
0
0
0
0
0
0
0
0
0
0
0
0
0
0
0
0
0
0.0479912574562
0.196040596859
0.346824269931
0.490991303486
0.620342317982
0.731160873284
0.822976152402
0.89953700655
0.961949186599
1
1
1
1
1
1
1
0.998484959153
0.931270626325
0.829449370168
0.700082541977
0.522646829034
0.256105535459
0
0
0
0
0
0
0
0
0
0
0
0
0
0
0
0
0
0.850421330271
1
1
1
1
1
1
1
1
1
1
1
1
1
1
1
0.990965210915
0.649527510495
0
0
0
0
0
0
0
0
0
0
0
0
0
0
0
0
0
0
0
0
0
0
0
0.121315733891
0.258045655437
0.394032348515
0.524026234163
0.6420734787
0.744931050492
0.831499351545
0.904894055676
0.966053979667
1
1
1
1
1
1
1
1
0.959773494394
0.862573865359
0.73589940845
0.562314691405
0.297465612738
0
0
0
0
0
0
0
0
0
0
0
0
0
0
0
0
0.154660289395
0.938126107052
1
1
1
1
1
1
1
1
1
1
1
1
1
1
1
0.837066519013
0.312108210716
0
0
0
0
0
0
0
0
0
0
0
0
0
0
0
0
0
0
0
0
0
0
0.0497434395475
0.19126449201
0.3183171024
0.440853570123
0.557421584074
0.664574346206
0.759335751824
0.840091906889
0.909408151575
0.968856744501
1
1
1
1
1
1
1
1
0.985668587638
0.890188128246
0.765285205783
0.595418904836
0.334123363038
0
0
0
0
0
0
0
0
0
0
0
0
0
0
0
0
0.438644147347
0.986260345346
1
1
1
1
1
1
1
1
1
1
1
1
1
1
0.958031865708
0.540734536377
0
0
0
0
0
0
0
0
0
0
0
0
0
0
0
0
0
0
0
0
0
0
0
0.109755408096
0.255698255545
0.375878270965
0.486729297985
0.59134351871
0.68759427139
0.77357598537
0.848048845699
0.912925728457
0.970220844682
1
1
1
1
1
1
1
1
0.998902873516
0.916685112043
0.793104219291
0.626455661198
0.368391603916
0
0
0
0
0
0
0
0
0
0
0
0
0
0
0
0
0.661123589131
1
1
1
1
1
1
1
1
1
1
1
1
1
1
0.998683541986
0.710785432856
0
0
0
0
0
0
0
0
0
0
0
0
0
0
0
0
0
0
0
0
0
0
0
0
0.155506079439
0.312044222935
0.429674475454
0.531039714992
0.624308226763
0.710220970681
0.787857478134
0.855973836027
0.915515977292
0.970042103338
1
1
1
1
1
1
1
1
1
0.940100934174
0.815636762023
0.653147859049
0.399860066533
0
0
0
0
0
0
0
0
0
0
0
0
0
0
0
0
0.813113355833
1
1
1
1
1
1
1
1
1
1
1
1
1
1
0.838002227037
0.278806772954
0
0
0
0
0
0
0
0
0
0
0
0
0
0
0
0
0
0
0
0
0
0
0
0
0.182672147093
0.357018064066
0.477544724454
0.57229127293
0.656102759745
0.732649442531
0.801582815027
0.863022462788
0.917413848247
0.968102811792
1
1
1
1
1
1
1
1
1
0.957806799745
0.834673616035
0.676116475328
0.429930632934
0.0330157390425
0
0
0
0
0
0
0
0
0
0
0
0
0
0
0
0.910840561898
1
1
1
1
1
1
1
1
1
1
1
1
1
0.931041835939
0.453825111341
0
0
0
0
0
0
0
0
0
0
0
0
0
0.802705788024
0
0
0
0
0
0
0
0
0
0
0.0148030506212
0.185476975801
0.387592945426
0.51741211939
0.610050913621
0.686336434497
0.753960957405
0.81520830254
0.869709138483
0.918484914181
0.964711565669
1
1
1
1
1
1
1
1
1
0.973882088628
0.850897752545
0.697522220385
0.457849442333
0.0739018150171
0
0
0
0
0
0
0
0
0
0
0
0
0
0
0.168071982576
0.969889433615
1
1
1
1
1
1
1
1
1
1
1
1
0.982430599339
0.581308419623
0
0
0
0
0
0
0
0
0
0
0
0
0
0
1
0
0
0
0
0
0
0
0
0
0
0.0200157195754
0.161521121903
0.397624716437
0.546983150454
0.642921532549
0.714213212384
0.774630043921
0.82812759354
0.875893064618
0.918754704669
0.959658803454
1
1
1
1
1
1
1
1
1
0.98910560691
0.866880991242
0.717781660581
0.485567764061
0.117017699857
0
0
0
0
0
0
0
0
0
0
0
0
0
0
0.416557091868
0.99714619114
1
1
1
1
1
1
1
1
1
1
1
0.999471928782
0.693926196163
0
0
0
0
0
0
0
0
0
0
0
0
0
0
1
1
0
0
0
0
0
0
0
0
0
0
0.0164992789436
0.146418564143
0.380464873821
0.560941514741
0.668494363242
0.739458784056
0.794087299038
0.840616095105
0.881750457849
0.918460387995
0.953605844155
0.992362117689
1
1
1
1
1
1
1
1
1
0.885020321586
0.736146842154
0.513086099732
0.161045525411
0
0
0
0
0
0
0
0
0
0
0
0
0
0
0.619156285328
1
1
1
1
1
1
1
1
1
1
1
1
0.798568424412
0
0
0
0
0
0
0
0
0
0
0
0
0
0
1
1
1
0.301222495472
0
0
0
0
0
0
0
0
0
0.00728033174704
0.127067766963
0.329471520337
0.553342522358
0.683419940791
0.760230498712
0.81192885882
0.852947624312
0.887516264263
0.918014538169
0.946981523584
0.980407593422
1
1
1
1
1
1
1
1
1
0.898768065459
0.752169694243
0.539628497155
0.206631842217
0
0
0
0
0
0
0
0
0
0
0
0
0
0
0.777424164033
1
1
1
1
1
1
1
1
1
1
1
0.896651223251
0.279137951992
0
0
0
0
0
0
0
0
0
0
0
0
0
0
1
1
1
0.559157037034
0
0
0
0
0
0
0
0
0
0
0.0983209484326
0.262967612899
0.515506565717
0.682331530591
0.773910930787
0.827933113502
0.864735328695
0.893437001386
0.917892059025
0.940198963712
0.966804632777
1
1
1
1
1
1
1
1
1
0.915731041437
0.772881438853
0.568511285383
0.254577810251
0
0
0
0
0
0
0
0
0
0
0
0
0
0
0.884249257853
1
1
1
1
1
1
1
1
1
1
0.972565021692
0.440935907446
0
0
0
0
0
0
0
0
0
0
0
0
0
0
1
1
1
1
0.669469544009
0
0
0
0
0
0
0
0
0
0
0.0620936874903
0.217218823566
0.438245801778
0.656276450884
0.776371079877
0.839516844265
0.875550040892
0.899772336096
0.918411380474
0.934223459558
0.952703808638
0.986547651104
1
1
1
1
1
1
1
1
0.930455867814
0.793655260041
0.597826191227
0.30363442363
0
0
0
0
0
0
0
0
0
0
0
0
0
0
0.948662239216
1
1
1
1
1
1
1
1
1
0.999548056745
0.614226497854
0
0
0
0
0
0
0
0
0
0
0
0
0
0
0
1
1
1
1
0.68581331718
0.146006654913
0
0
0
0
0
0
0
0
0
0.0249437832269
0.164133298245
0.341851328849
0.59466533256
0.759311059601
0.843106207478
0.884184940278
0.90634520367
0.919881684315
0.929317094637
0.939609818419
0.966355874369
1
1
1
1
1
1
1
1
0.942284272958
0.813959955799
0.628063259076
0.354054990688
0
0
0
0
0
0
0
0
0
0
0
0
0
0.0725838707554
0.984522385288
1
1
1
1
1
1
1
1
1
0.785182804598
0
0
0
0
0
0
0
0
0
0
0
0
0
0
0
1
1
1
1
1
0.655470039643
0.497649766536
0
0
0
0
0
0
0
0
0
0.000763757347209
0.103527423868
0.274972416088
0.48637280225
0.711693664223
0.832093501862
0.88789111518
0.912203865705
0.922328933384
0.926300834014
0.928849362674
0.944347711589
0.982084439643
1
1
1
1
1
1
1
0.955264141617
0.835851786352
0.660913723979
0.405958573172
0.0417043830804
0
0
0
0
0
0
0
0
0
0
0
0
0.268233142094
0.999159176316
1
1
1
1
1
1
1
1
0.933084287554
0.254931873854
0
0
0
0
0
0
0
0
0
0
0
0
0
0
0.474564060449
1
1
1
1
1
0.613784597158
0.650312778367
0
0
0
0
0
0
0
0
0
0
0.0431266214812
0.199663560241
0.37992006162
0.618218694532
0.795217870686
0.880416876799
0.914925553786
0.925157681466
0.924940822736
0.920952601174
0.921062494045
0.957411264824
0.992540442705
1
1
1
1
1
1
0.965059322793
0.855862176832
0.694287209089
0.458245272417
0.123080436061
0
0
0
0
0
0
0
0
0
0
0
0
0.43195787617
1
1
1
1
1
1
1
1
0.998675179624
0.539263815367
0
0
0
0
0
0
0
0
0
0
0
0
0
0
0
1
1
1
1
1
0.894669078925
0.572557781403
0.68649510873
0.129325510474
0
0
0
0
0
0
0
0
0
0.00249735212241
0.116097427906
0.295609393131
0.475717212607
0.716743918388
0.852020828158
0.909508327914
0.926430118646
0.92472401605
0.915648642826
0.90600059613
0.930729512321
0.964985307808
0.998406657328
1
1
1
1
1
0.973530491909
0.87530420088
0.727011540999
0.51119328141
0.203509268933
0
0
0
0
0
0
0
0
0
0
0
0
0.565470287561
1
1
1
1
1
1
1
1
0.782906371449
0
0
0
0
0
0
0
0
0
0
0
0
0
0
0
1
1
1
1
1
1
0.458404578249
0.534310395322
0.664908933294
0.411135588967
0
0
0
0
0
0
0
0
0
0
0.0387316827412
0.198348312021
0.379618002945
0.579748658648
0.785189708945
0.886666270589
0.922195690022
0.924562258534
0.912541045885
0.896708711019
0.903193006305
0.935688802111
0.969679254434
1
1
1
1
1
0.975680626176
0.891927629177
0.759569640069
0.563626501383
0.282029618845
0
0
0
0
0
0
0
0
0
0
0
0
0.672400905662
1
1
1
1
1
1
1
0.959645473984
0.31204674872
0
0
0
0
0
0
0
0
0
0
0
0
0
0
1
1
1
1
1
1
1
0.162196053862
0.500683365305
0.630304330698
0.526419859239
0
0
0
0
0
0
0
0
0
0
0
0.0960841031753
0.275990332488
0.445597847477
0.659344730766
0.828721596661
0.902748439697
0.920212999556
0.910549585971
0.89069381433
0.874469549912
0.905146469895
0.938791147078
0.973146227577
1
1
1
1
0.974053183064
0.906740563699
0.790381846909
0.613614286488
0.359196400052
0.00770819347314
0
0
0
0
0
0
0
0
0
0
0
0.75515115886
1
1
1
1
1
1
1
0.648360176895
0
0
0
0
0
0
0
0
0
0
0
0
0
0
0.185774630622
1
1
1
1
1
1
0.779216676535
0
0.472110310226
0.599808723681
0.544416038112
0.236754208381
0
0
0
0
0
0
0
0
0
0
0.0144409845958
0.157867337671
0.339451084053
0.492505595545
0.712932231508
0.851674284271
0.90263607223
0.904908270037
0.885590300944
0.860358782439
0.872646625002
0.904156147772
0.939794752962
0.970319952759
0.992767974382
1
0.994809657942
0.97129479762
0.917482283311
0.818016080627
0.662410921921
0.433397112599
0.111929283871
0
0
0
0
0
0
0
0
0
0
0
0.816238222671
1
1
1
1
1
1
0.892659136734
0.151260239933
0
0
0
0
0
0
0
0
0
0
0
0
0
0
0.6188049697
1
1
1
1
1
1
0.595388841318
0
0.448551238792
0.574575111888
0.52760117338
0.392542825553
0
0
0
0
0
0
0
0
0
0
0
0.0461589918955
0.213049706502
0.383642349787
0.531064062684
0.743021321184
0.856176081133
0.888709934967
0.878790579643
0.852591799996
0.838004528979
0.86677080664
0.902059883449
0.936066070497
0.961749175018
0.97549076411
0.978775844119
0.96332494414
0.924246777334
0.843022005579
0.707952499567
0.504802848958
0.213628767906
0
0
0
0
0
0
0
0
0
0
0
0.857718217989
1
1
1
1
1
0.999272411276
0.563045250543
0
0
0
0
0
0
0
0
0
0
0
0
0
0
0
0.838057656224
1
1
1
1
1
1
0.522601986761
0
0.430120008717
0.553559861029
0.512317091117
0.434122722969
0.195261122761
0
0
0
0
0
0
0
0
0
0
0
0.0809374702136
0.253746005268
0.40580491946
0.55733036541
0.752434954889
0.84442144124
0.861472503744
0.842542131955
0.81270665321
0.826526364439
0.86046116608
0.896923883165
0.927611975857
0.948740196159
0.958183119978
0.95556313928
0.930168245467
0.866333815376
0.752078814923
0.573151701953
0.310881519595
0
0
0
0
0
0
0
0
0
0
0
0.882275582588
1
1
1
1
1
0.846400888399
0.0799743857656
0
0
0
0
0
0
0
0
0
0
0
0
0
0
0
0.944452315343
1
1
1
1
1
1
0.520615346545
0
0.414752381314
0.535919706686
0.500885148961
0.420366842076
0.346643922567
0
0
0
0
0
0
0
0
0
0
0
0.000297033176344
0.108563930783
0.274943139566
0.409433886311
0.564085581889
0.742775086894
0.817130959538
0.822667187828
0.798829371481
0.781208107146
0.814600864932
0.853057155881
0.889909560504
0.917415557376
0.936122021373
0.941192963793
0.932013133083
0.88661675768
0.793036472726
0.639100546104
0.405517561386
0.0568885669345
0
0
0
0
0
0
0
0
0
0
0.891628349547
1
1
1
1
0.990925464137
0.530656636535
0
0
0
0
0
0
0
0
0
0
0
0
0
0
0
0.145336523756
0.982906620977
1
1
1
1
1
1
0.559435393299
0.072132543585
0.40155252786
0.52066299965
0.489726308621
0.399174813143
0.380078956479
0.197221182118
0
0
0
0
0
0
0
0
0
0
0
0.00230428070749
0.122245775594
0.274619251636
0.396690575334
0.551039100126
0.71555336892
0.776122625582
0.774431011912
0.74894724748
0.761982843326
0.802900208102
0.845710540767
0.882544988881
0.909074729013
0.926832526999
0.930732425629
0.906543098482
0.833738519187
0.705687627563
0.502699579756
0.187437839861
0
0
0
0
0
0
0
0
0
0
0.886847929213
1
1
1
1
0.820970729631
0.0877116040415
0
0
0
0
0
0
0
0
0
0
0
0
0
0
0
0.221140857784
0.967732971501
1
1
1
1
1
1
0.619002653069
0.128613885974
0.392574473056
0.506228855185
0.475429582036
0.37666923809
0.358706466733
0.3022648902
0
0
0
0
0
0
0
0
0
0
0
0
0.00131857547971
0.117060485653
0.253938226445
0.369485243197
0.519280411798
0.671463475551
0.723248579736
0.718962429969
0.697686770745
0.744625338732
0.794272435489
0.840690456134
0.879101339678
0.907451101761
0.928584952782
0.927382732025
0.878919662926
0.77460370924
0.598989393318
0.316390725828
0
0
0
0
0
0
0
0
0
0
0.867645654398
1
1
1
0.970104618412
0.533602963119
0
0
0
0
0
0
0
0
0
0
0
0
0
0
0
0
0.223775719476
0.909890952124
1
1
1
1
1
1
0.687273957645
0.194157905419
0.389301447
0.489592831984
0.455105933028
0.350994885692
0.32692330317
0.296297185425
0.123185976112
0
0
0
0
0
0
0
0
0
0
0
0
0
0.091797892454
0.215246852484
0.327342356862
0.468579628116
0.611393260338
0.659770503724
0.658551593027
0.671881614339
0.731571268793
0.789666857837
0.84058100451
0.882702142189
0.911205489175
0.936066619639
0.917680268495
0.840128582252
0.692242546592
0.442104517893
0.106576289348
0
0
0
0
0
0
0
0
0
0.833791919754
1
1
1
0.798769608633
0
0
0
0
0
0
0
0
0
0
0
0
0
0
0
0
0
0.197371760731
0.830244522815
1
1
1
1
1
1
0.756617035257
0.266116562873
0.38796420682
0.468332128353
0.427339255092
0.320042630486
0.29059020301
0.258995901491
0.19649818847
0
0
0
0
0
0
0
0
0
0
0
0
0
0
0.0476242211987
0.15985502722
0.268930795155
0.400152613147
0.538031392856
0.589959791031
0.598203293604
0.653379470278
0.727600937896
0.793738288842
0.849601212501
0.892486598596
0.933184889701
0.945705149003
0.897424567063
0.779084751871
0.561761268831
0.252836009184
0
0
0
0
0
0
0
0
0
0.782401028253
1
1
0.926241199756
0.540180835164
0
0
0
0
0
0
0
0
0
0
0
0
0
0
0
0
0
0.141178749164
0.729363637013
1
1
1
1
1
1
0.811398789342
0.345927836457
0.381578511211
0.441407016735
0.391613312412
0.283956009696
0.25256788633
0.22750802767
0.195499020235
0.106075118945
0
0
0
0
0
0
0
0
0
0
0
0
0
0
0
0.0885585026325
0.194316820349
0.31586133283
0.453578822751
0.517655840178
0.546987933652
0.6481012435
0.737208232275
0.811174592369
0.870035684371
0.918222171742
0.959478382619
0.943297210966
0.855578398725
0.671723508738
0.390690647499
0
0
0
0
0
0
0
0
0
0.712533158523
0.966162413041
0.955503697347
0.757723519715
0
0
0
0
0
0
0
0
0
0
0
0
0
0
0
0
0
0
0.0637056383551
0.605034614321
1
1
1
1
1
1
0.793574997081
0.421311758228
0.364538507211
0.410865682966
0.347896349144
0.244857717391
0.216083238779
0.207328994426
0.191086008957
0.170767943604
0.0455096540902
0
0
0
0
0
0
0
0
0
0
0
0
0
0
0
0.00358363310942
0.106262263053
0.220544585619
0.360543675635
0.445989883558
0.532804659259
0.65716340386
0.760326227292
0.839551269992
0.901026970088
0.962412028053
0.973711242187
0.914974255076
0.764363559578
0.513552621264
0
0
0
0
0
0
0
0
0
0.616834417211
0.875247658197
0.827046806333
0.287236963907
0
0
0
0
0
0
0
0
0
0
0
0
0
0
0
0
0
0
0
0.433448981639
0.818526929807
1
1
1
1
0.955635442535
0.762366371315
0.487192097881
0.338913521819
0.378497793077
0.295966008858
0.208155072035
0.180699010619
0.189967890558
0.190381679752
0.190121089268
0.170755611784
0.0120736440749
0
0
0
0
0
0
0
0
0
0
0
0
0
0
0
0
0.00792544459809
0.119105966548
0.261620336627
0.381332108014
0.545772831378
0.69380614871
0.808383759502
0.885013718556
0.958701683415
0.988907873449
0.955031146434
0.836585656863
0.619902012608
0
0
0
0
0
0
0
0
0
0.361265132149
0.761327592635
0.520977045378
0
0
0
0
0
0
0
0
0
0
0
0
0
0
0
0
0
0
0
0
0.220770544597
0.600469760809
0.856654344575
0.986873813942
1
0.95293631172
0.862701372219
0.727879003336
0.543929322084
0.298586800966
0.349989476678
0.238909478302
0.172070632513
0.152476394779
0.172455244058
0.187842452755
0.200703168784
0.208613063415