/*--------------------------------*- C++ -*----------------------------------*\
| =========                 |                                                 |
| \\      /  F ield         | OpenFOAM: The Open Source CFD Toolbox           |
|  \\    /   O peration     | Version:  v1806                                 |
|   \\  /    A nd           | Web:      www.OpenFOAM.com                      |
|    \\/     M anipulation  |                                                 |
\*---------------------------------------------------------------------------*/
FoamFile
{
    version     2.0;
    format      ascii;
    class       volScalarField;
    location    "100";
    object      p;
}
// * * * * * * * * * * * * * * * * * * * * * * * * * * * * * * * * * * * * * //

dimensions      [0 2 -2 0 0 0 0];


internalField   nonuniform List<scalar> 
6400
(
0.257061053697
0.256940073014
0.256861364005
0.256884776888
0.256889989922
0.256692987247
0.256113417636
0.255115578056
0.253710575656
0.251896833988
0.249803967818
0.247630545101
0.245467411123
0.243366429592
0.241376766087
0.239536531115
0.237872144737
0.236398424365
0.235119947594
0.234032448011
0.233124455488
0.232379166471
0.231776748345
0.231296962
0.230921615206
0.230636097355
0.230429457269
0.230293092915
0.23021892151
0.230198291761
0.230222632617
0.230285848541
0.230387348261
0.23053384196
0.230738535727
0.231018241648
0.231390828106
0.231875446015
0.232495072914
0.23328121014
0.23427644722
0.235533478718
0.237113160832
0.239081086746
0.24150444578
0.244446767283
0.2479578116
0.252058610446
0.256726113274
0.261883274376
0.267394893982
0.273071275237
0.278679743541
0.283966947819
0.288701511157
0.292701275568
0.295819463118
0.297928632941
0.299069868638
0.299722922531
0.299980243728
0.299563024964
0.2986509053
0.297517761914
0.296349830452
0.295284619503
0.29443293106
0.293867448567
0.29363238758
0.293744345813
0.294166901981
0.294831123707
0.295652341552
0.296537389567
0.297391453719
0.298127601699
0.29867839861
0.298996525808
0.299124840961
0.299194327337
0.257053358421
0.256925167409
0.256876644297
0.256875983978
0.256798547014
0.256522612285
0.255870632268
0.254788428928
0.253330208156
0.251527979173
0.249481002958
0.24732740001
0.245164006204
0.243060312431
0.241071992248
0.239239158395
0.237588111946
0.236132693815
0.234876131969
0.233812768131
0.232929850937
0.232209527588
0.231631159985
0.231173875199
0.230818851826
0.230550761389
0.230357914107
0.230231196171
0.230162506812
0.23014375981
0.230167307207
0.23022780083
0.23032463001
0.230463349561
0.230654984538
0.230914008855
0.2312575842
0.231707288365
0.232288381449
0.233029510683
0.233969105258
0.235157624059
0.23665450438
0.23852565248
0.240840282082
0.243665155135
0.247054168469
0.251033820781
0.25558791721
0.260645149785
0.266073474754
0.271683676272
0.277245320447
0.282512956722
0.287255405151
0.291266769996
0.294363827305
0.29648163516
0.297882803301
0.298776988117
0.299048626468
0.298682604478
0.297878382825
0.296849459808
0.295768646045
0.29477436963
0.293977473915
0.29345621598
0.293255302148
0.293396710824
0.293852986637
0.294557350193
0.295424374018
0.296358888081
0.297262778984
0.298044376316
0.298632173849
0.298978503248
0.299148488271
0.299296922959
0.257189823091
0.256991870331
0.2568703169
0.256728385004
0.256434996801
0.255905731956
0.255053718353
0.253827427025
0.252270832053
0.250434936108
0.248402045905
0.246275910247
0.24414831398
0.242091703602
0.240161253111
0.238395547258
0.236818430319
0.235440933279
0.23426344391
0.233277726058
0.232468950526
0.231817805299
0.231302767973
0.23090239185
0.230597294113
0.230371419982
0.230212298499
0.230110365375
0.230057818847
0.230047792541
0.230074410962
0.230133920902
0.230226189549
0.230355470602
0.230530324166
0.230764020911
0.231076046898
0.231485832016
0.232012104382
0.232682475014
0.233535054966
0.234617427536
0.235987122722
0.237710762333
0.239861479934
0.242512762634
0.245727661324
0.249543646638
0.253955103895
0.258898033946
0.264241314954
0.269791377039
0.275316668303
0.280571579025
0.285309442955
0.289288160796
0.292332844568
0.294551580856
0.296215337919
0.297287916773
0.297639595999
0.297396923305
0.296724875177
0.295805086668
0.29480770457
0.293876554615
0.293125719065
0.292635091185
0.292453672471
0.292614119761
0.293095770481
0.293834304773
0.294746702206
0.29574087116
0.296722173455
0.297603421525
0.298321193305
0.298844697235
0.299210407077
0.299501399489
0.257463246589
0.257187420237
0.25689483187
0.256479934608
0.255886461713
0.255065984241
0.253967908254
0.252559665207
0.250877758065
0.248983397313
0.246950704044
0.244861964909
0.242795404587
0.240817992058
0.238980819007
0.237318179728
0.235849650019
0.234582323085
0.233513069346
0.232630712407
0.231918202891
0.231354804095
0.23091824164
0.230586725631
0.230340624364
0.23016350228
0.230042425023
0.229967592278
0.229931604846
0.22992877817
0.229955009062
0.230008167784
0.230088529107
0.2301993945
0.230348357992
0.230549438879
0.230818066194
0.231167122248
0.231614797372
0.232188054048
0.232921304612
0.233858391682
0.235054169567
0.236575328521
0.238499052469
0.240907771819
0.243878407671
0.247465264105
0.251678817305
0.256465395344
0.261696963996
0.267174210131
0.27266315945
0.27790624005
0.282622778945
0.286561940809
0.289659809106
0.29215539763
0.294066136439
0.29521481379
0.295666623683
0.295538698058
0.294980746054
0.294162773679
0.293250956889
0.292390377233
0.291697405796
0.291254319069
0.29111480072
0.291319875769
0.291852296913
0.292650290273
0.293634873119
0.29471917691
0.295814943199
0.296842734663
0.297745886763
0.298497927333
0.299096591829
0.299616308027
0.257743400002
0.257325084437
0.256781399708
0.256062293658
0.255152493189
0.254030306125
0.252683298831
0.251092110999
0.2492850435
0.247323326543
0.245281078076
0.243231747129
0.241241325078
0.239365432986
0.237646299154
0.236111522256
0.234775257013
0.233640050611
0.232698956786
0.231937689579
0.231336843509
0.230874107135
0.230526378913
0.230271612153
0.230090215802
0.229965897379
0.229885894703
0.229840732968
0.229823609553
0.229829877577
0.229856841394
0.229903567591
0.229971012807
0.230063414888
0.230189899643
0.230361429243
0.230584823049
0.230870292144
0.2312364282
0.231706447687
0.23231044416
0.233087677826
0.234089185989
0.235380117798
0.237040470728
0.239161988176
0.241837720482
0.245142894309
0.249108182796
0.253692969294
0.258775328652
0.264147041236
0.269565529231
0.274748892907
0.279392030354
0.283315464101
0.286630412157
0.289365631073
0.291353101129
0.292586037458
0.293133636389
0.293106665751
0.292649703506
0.291925626418
0.291096306991
0.290307030635
0.289676784486
0.289291182859
0.289208098279
0.289475334195
0.290077958408
0.290957960075
0.292041076959
0.293245149679
0.294486476028
0.295689091087
0.296793818109
0.297764694788
0.298551578639
0.299244238221
0.257691331119
0.257078346031
0.256288072305
0.25530510488
0.25413827708
0.252773697753
0.251209610453
0.249456654174
0.247552921399
0.245553354553
0.243523802171
0.24153054309
0.239631344315
0.237871847549
0.236284872903
0.234890609756
0.233697504473
0.232703593235
0.231898226495
0.231264055894
0.230779236138
0.230419732415
0.230161499385
0.229982266333
0.229862803841
0.229787510171
0.229744450391
0.229725032818
0.229723350848
0.229735678093
0.229760261577
0.229797664003
0.229850849721
0.229926861787
0.230032765693
0.230170725139
0.230346364594
0.230571434822
0.230860276025
0.231231489722
0.231709836531
0.232328776703
0.233133799094
0.234186293668
0.235567016488
0.237375922676
0.239723067106
0.24270693468
0.246383083867
0.250725652834
0.255623665069
0.26085216539
0.266147623048
0.271209389925
0.275771660698
0.279805775817
0.283297950591
0.286092668267
0.288127004972
0.289415849358
0.290025444159
0.290065532821
0.289677763101
0.289020706439
0.288253797631
0.287523151055
0.286950968744
0.286627278867
0.286613552866
0.286963130503
0.287660928797
0.288651564415
0.289863831368
0.291217428673
0.292629179594
0.29402131486
0.295325995841
0.296494817099
0.297429040996
0.298246137835
0.256955253709
0.256237641512
0.255322453187
0.254176770284
0.252833660368
0.2512974443
0.249579496039
0.247714106804
0.245752995247
0.243750409546
0.241763575792
0.239849322236
0.238057030988
0.236424526351
0.234977388904
0.233729596482
0.232684470545
0.231835757333
0.231169068605
0.230663757042
0.230295230338
0.230037498384
0.229865520324
0.229756993145
0.229693497202
0.229660749174
0.229648231704
0.229648976637
0.229658626659
0.229674656001
0.229696931375
0.229729027615
0.229775465582
0.229837851472
0.229918436387
0.230022610008
0.230157327534
0.230330960937
0.230554026287
0.230840317719
0.231208648148
0.231685484997
0.232308807783
0.233133493959
0.2342374654
0.235726033673
0.237725214809
0.240357157801
0.243708845508
0.24776908262
0.252441399167
0.257470305593
0.262565783219
0.267459325833
0.272006305399
0.276111285504
0.279607355204
0.282391807639
0.284422630111
0.285714738756
0.286335284844
0.28639388306
0.286030550081
0.285401879839
0.284666929348
0.283973945547
0.283449350179
0.283188663967
0.28325431923
0.283701949105
0.284514932406
0.285640074535
0.287007214394
0.288534574789
0.290135493569
0.29172637713
0.293227751739
0.294581442853
0.295646495536
0.296576388878
0.255529412462
0.254823632979
0.253918923439
0.252718681773
0.251285157144
0.249648720264
0.247846291107
0.245928588522
0.243954827976
0.241981734491
0.240062888818
0.238247275878
0.236575856029
0.235079249837
0.233777104404
0.23267842201
0.231782179441
0.231078115869
0.230548000256
0.230167589283
0.229909259141
0.229745064647
0.229649314986
0.229600237682
0.229581087644
0.229579805481
0.22958817067
0.22960189037
0.229619103114
0.229638935632
0.229661927773
0.229688639719
0.229721684065
0.22976577329
0.2298250613
0.229904097341
0.230008208642
0.230143582798
0.230317626705
0.230539798828
0.230823101778
0.231186569952
0.231659292052
0.232286680394
0.233139044199
0.234322034596
0.235975693988
0.238244163335
0.241252375885
0.244999522497
0.249395480977
0.25414986064
0.258975125827
0.263703688869
0.268187528041
0.272205231357
0.275615209422
0.278318993557
0.280275942314
0.281503172651
0.282069166929
0.28208369313
0.28168624326
0.281033141188
0.280285138401
0.279594856056
0.279095533526
0.278890705066
0.279040124945
0.279595871795
0.280540184695
0.281821741049
0.28336792576
0.28509124448
0.28689801205
0.288696416215
0.290394162624
0.291926606594
0.293116258775
0.294157233583
0.253625087175
0.253017588061
0.252196678367
0.251010035455
0.249557159415
0.247888842674
0.246065589042
0.244150892461
0.242208512085
0.240297147392
0.238468911226
0.236767577017
0.235227405599
0.233872838884
0.232718504302
0.231769261118
0.231020265903
0.230457305258
0.230058045664
0.229794384438
0.229635678848
0.229552342226
0.229519003642
0.229515901279
0.229529486959
0.229551308615
0.22957507823
0.22959600551
0.229612673695
0.229626951639
0.229641562456
0.229658955226
0.229681832611
0.22971359102
0.229758009795
0.229819321708
0.22990212271
0.230011257939
0.230151960365
0.230330400043
0.230554828477
0.230837544285
0.231198398813
0.231671516164
0.232314714509
0.233228187295
0.234565452902
0.236486796562
0.23915197371
0.242555580057
0.246595483618
0.250988566747
0.255519300777
0.260031345551
0.264315484356
0.268154142237
0.271391601635
0.273930106709
0.275731558124
0.27681520567
0.277250799887
0.27714844355
0.276647706485
0.275905424562
0.275085382749
0.274346646323
0.27383377266
0.273667466055
0.27390021248
0.274568726472
0.275655202445
0.277109962188
0.278854295471
0.280791069211
0.28281656915
0.28482909804
0.286723015724
0.288429703514
0.289737376669
0.290885576253
0.251562989234
0.25105985621
0.250312075376
0.249159598274
0.247731311156
0.246083167295
0.244289824539
0.242422948815
0.240549559588
0.238728977414
0.237011512202
0.235437041387
0.23403500548
0.232825217672
0.2318183241
0.231015617263
0.230408618356
0.229979193014
0.229700610558
0.22954052475
0.229465866841
0.22944713819
0.22946120643
0.22949174561
0.229525775661
0.229554473553
0.229575897029
0.229591524869
0.229603072033
0.229612492551
0.229621726269
0.229632751741
0.229648005155
0.229670573129
0.229704119332
0.229752748968
0.229820731501
0.229912240935
0.230031302114
0.230182083464
0.230369624834
0.230601182884
0.230888475755
0.231255205494
0.23174480989
0.232447634896
0.233527545938
0.235145979491
0.237467080022
0.240480934677
0.244055100996
0.24806134483
0.252250273265
0.256468320192
0.260465362703
0.264028334465
0.267000201768
0.269284264194
0.270844528365
0.271702011164
0.271927485458
0.271631049503
0.270952243054
0.27004831536
0.269086644006
0.268233731532
0.26765060274
0.267481325999
0.26777135798
0.268541276706
0.269776903054
0.271423076816
0.273385026615
0.275550545575
0.277803822055
0.280032978935
0.282119618875
0.283994054301
0.285411940607
0.286661261467
0.249572589035
0.249114471446
0.248393570121
0.247273802663
0.24589164792
0.244296150146
0.242568086237
0.24078193309
0.239005839617
0.237298218354
0.235706755818
0.234267809842
0.233007176431
0.231941285946
0.23107768599
0.230414637654
0.229940228823
0.229631968568
0.229458667975
0.229384947829
0.229376488723
0.229405470951
0.229450983692
0.229496263776
0.229532330418
0.229558079828
0.229575560742
0.229587148377
0.229594797101
0.229600187175
0.229604865564
0.229610538115
0.229619353959
0.229634150199
0.229658505973
0.229696553528
0.229752610894
0.229830757244
0.229934572692
0.23006718891
0.230231741734
0.230432510778
0.230675227342
0.230977321308
0.231371282336
0.231933609771
0.232819797448
0.234176169496
0.236111287532
0.238690920792
0.241812048027
0.245396931903
0.249222975414
0.253063771753
0.256685410508
0.259882225487
0.262500025002
0.264444668414
0.265682603361
0.266236456924
0.266177375707
0.26561377481
0.264683115273
0.263540459083
0.262355588678
0.261305279582
0.260590910888
0.26038488453
0.260698122912
0.261527923506
0.262890083492
0.264726374034
0.266914000678
0.269315374382
0.271797348442
0.274237063761
0.276505079312
0.278534902964
0.280051791186
0.281395716933
0.247684092619
0.247232379612
0.246515248624
0.245429032418
0.244104696786
0.2425814752
0.240941724512
0.239258430098
0.237598463341
0.236017875989
0.234561130959
0.233261192927
0.232140785896
0.23121364175
0.230484853628
0.229950036564
0.229593849023
0.229389820955
0.22930325768
0.229296446103
0.229336090823
0.229395957516
0.229455254114
0.229503034607
0.229537381277
0.22956003472
0.229574085822
0.229582284962
0.229586726818
0.229588981095
0.229590297094
0.229591956193
0.229595659829
0.229603908975
0.229620170541
0.22964873457
0.229694259708
0.229761086479
0.229852730646
0.22997178996
0.230120210566
0.23030119221
0.230516702545
0.230781067476
0.231121017401
0.231592723406
0.232303899117
0.233407988063
0.234993800464
0.237159856531
0.239887299522
0.243048108665
0.246438939632
0.249832845149
0.253004816828
0.255758384628
0.2579461765
0.259479200587
0.260327783292
0.260516760098
0.260117052799
0.259232799884
0.257996178594
0.256555362161
0.255075686667
0.253712346313
0.25271616103
0.252359964919
0.252641879343
0.2535182829
0.255013540133
0.257043228058
0.259454120066
0.262083344023
0.264777847521
0.26740394452
0.269824566229
0.27198282178
0.27357854844
0.275006737956
0.245853932349
0.245412181642
0.244709473525
0.243668594221
0.242413341454
0.240976452265
0.239440154909
0.237873508289
0.236340434289
0.234893570848
0.233573851387
0.232410974211
0.231424910532
0.230627141752
0.230020799838
0.229599274972
0.229344247395
0.229225845468
0.229206135378
0.229247164509
0.229317657446
0.229392214048
0.2294556147
0.229503398592
0.229536432597
0.229557434048
0.229569880607
0.229576560446
0.229579558825
0.229580350623
0.229579910786
0.229579158436
0.2295793549
0.229582599443
0.22959218871
0.229612555184
0.229648762435
0.229705487425
0.229786246715
0.229893316419
0.230027561401
0.230191712853
0.230386537112
0.230619935074
0.230914571584
0.231309754651
0.2318763695
0.232761168664
0.234080277786
0.2359132586
0.238244630791
0.240960596198
0.243875126896
0.246771918951
0.249438049538
0.251689731808
0.253390415983
0.254459680994
0.254874560744
0.25466396668
0.253899486774
0.252683656636
0.251152571997
0.249461373712
0.247790594165
0.246256568141
0.244964336534
0.244142973412
0.243957254168
0.2446772637
0.246251678484
0.24846701254
0.251087179477
0.253916192177
0.256780884946
0.259539171835
0.262052709969
0.264284093925
0.265916819878
0.267409808862
0.244076951473
0.243662919686
0.242996357646
0.242017129082
0.240842972913
0.239503708429
0.238080795688
0.236638376664
0.235236628342
0.233924222298
0.232738487432
0.231706038449
0.23084438565
0.230163159553
0.229664011241
0.22933862795
0.229166297797
0.22911373587
0.229140616188
0.229211836369
0.229300018347
0.229380753616
0.229444733906
0.229492281978
0.229525595954
0.229547278102
0.229560704102
0.229568447403
0.229572391578
0.2295738023
0.229573453649
0.22957209861
0.229570730392
0.229571090961
0.229576142669
0.229590176182
0.229618473053
0.229665865497
0.229735692304
0.229830006222
0.22994893279
0.230093274102
0.230265666349
0.23046693
0.230713715124
0.231039706213
0.231510204902
0.232236572991
0.233329881443
0.234858927395
0.236809510907
0.23907851162
0.2414969328
0.243865937727
0.245990060214
0.247702422161
0.248881430896
0.249459358441
0.249423608071
0.248809403307
0.247693872022
0.246195404478
0.244482372245
0.24273412176
0.241025990933
0.239389389692
0.238020937105
0.236996671662
0.236382721717
0.23650492038
0.237683856998
0.239741360235
0.242327144642
0.245158582563
0.248020882523
0.250756132099
0.253222313913
0.255406345363
0.256986958885
0.258502410259
0.242389595387
0.242014444491
0.241398719806
0.240493262612
0.239409622698
0.238175880024
0.236871845138
0.235556321144
0.234285447323
0.233103710938
0.232044907729
0.231132766153
0.230382592521
0.229802449062
0.229392852203
0.22914430868
0.229034291043
0.229027115034
0.229085231392
0.229178278179
0.229277282746
0.229360169675
0.229423727829
0.229471784269
0.229507080392
0.229531563185
0.229547870897
0.22955810691
0.229564040518
0.229566936099
0.229567689794
0.229567067226
0.22956586602
0.229565467093
0.229568360168
0.22957831651
0.229600266202
0.22963880614
0.229696912419
0.229776238245
0.229877551572
0.230000040181
0.230146212879
0.23031782232
0.230524679672
0.230794660842
0.231184602001
0.231782969268
0.232681634902
0.233934036973
0.235521831139
0.237350146966
0.239267292473
0.241095498858
0.242661139602
0.243818346733
0.244464626368
0.244549210493
0.244072784605
0.243079686646
0.241666592968
0.239988643934
0.238210700306
0.23641000698
0.234604409129
0.233025722385
0.23182031824
0.230904867854
0.230266802888
0.230020057141
0.230458175045
0.23176386731
0.233841359034
0.236310818116
0.238844827182
0.241262781579
0.243417846223
0.24532483165
0.246676085387
0.248126945094
0.240833356867
0.240499215494
0.23993906715
0.239112468379
0.238123894628
0.236999188816
0.235815252015
0.234625218812
0.233481045439
0.232422968406
0.231481371118
0.230677271687
0.230023944547
0.229528061082
0.229189319934
0.228997911529
0.228930982755
0.228952339137
0.229032671898
0.229145230585
0.22925256374
0.229335435445
0.229398018259
0.22944718004
0.229485429673
0.229513686906
0.229533267458
0.229546051121
0.229554007598
0.229558612615
0.229560925168
0.229561720522
0.229561657044
0.229561745817
0.229563895799
0.2295711978
0.229587630553
0.229617164425
0.229663001692
0.229727081103
0.229810518451
0.229913223828
0.230035197449
0.230177342399
0.230346920722
0.230567700292
0.230887516763
0.231374919522
0.232098572487
0.233093391776
0.234334075473
0.235732215702
0.237153226989
0.23844230407
0.239450732946
0.240057110179
0.240181831603
0.239794065203
0.23890897085
0.237589937555
0.235975200377
0.2342196036
0.232360940487
0.230500060174
0.228782804013
0.227382897371
0.226293354655
0.225428036404
0.224762185126
0.224333776982
0.22422127827
0.224775927052
0.225917648835
0.227679870887
0.229527333508
0.231252006963
0.232712707355
0.233969833146
0.234773582371
0.235985179664
0.23943471523
0.239138803947
0.238632993004
0.237884988614
0.236991427183
0.235975066089
0.234908705429
0.233839537399
0.232815235771
0.231871776435
0.231036269035
0.230327166898
0.229755832566
0.229327645646
0.22904185613
0.228889463682
0.228849316893
0.228888290493
0.228984701238
0.229112696637
0.229227056078
0.229310782535
0.229373734528
0.229424269348
0.22946470626
0.229495535969
0.229517399429
0.229532209053
0.229542088392
0.229548580084
0.229552740634
0.229555257113
0.229556614358
0.229557593202
0.229559585228
0.229564884754
0.229576645904
0.229598522086
0.229633720599
0.229684375916
0.229751358181
0.229834357116
0.229932515266
0.23004587533
0.230180306992
0.230356269193
0.230611847434
0.230996399669
0.231555375249
0.232304583375
0.233210841697
0.234191455351
0.235128893707
0.235892350648
0.236359971131
0.236437531826
0.236070967271
0.235249576259
0.234005574443
0.232440634936
0.230721363928
0.228846210545
0.226993080871
0.225186090214
0.223635418836
0.222377369312
0.221341222078
0.22046305648
0.219732198437
0.219139705286
0.218677324392
0.218483943792
0.218832347583
0.219502481563
0.220257200884
0.220861663752
0.221126559977
0.221167303588
0.220863973786
0.221469686098
0.2382034619
0.237941674401
0.237486860374
0.236814406383
0.236012693906
0.235100858858
0.234146788523
0.233191633499
0.232278757677
0.231439930741
0.230699155923
0.230072491309
0.229569537354
0.229194489661
0.228946390972
0.228817985292
0.228791024441
0.228838934676
0.228944364177
0.229083037347
0.229202109323
0.229289623646
0.229354218469
0.229405151668
0.229446151298
0.229478044814
0.229501585395
0.229518252174
0.229529943302
0.229538186581
0.229543988977
0.229547957586
0.229550506292
0.229552214375
0.229554124878
0.229558047
0.229566533303
0.229582579437
0.229608945528
0.229647501642
0.229698952719
0.22976284272
0.229837923867
0.229923583374
0.230024715688
0.230158509247
0.23035229761
0.230636518477
0.231034748314
0.231544995305
0.232127032611
0.232704251508
0.233176452915
0.233437362082
0.233393151506
0.23297873545
0.232165928338
0.230963079951
0.229432217909
0.227715704007
0.225868833735
0.224013802019
0.222182320523
0.22052514019
0.219138608012
0.217979960974
0.216963974788
0.216036575101
0.215194175895
0.21439758038
0.213605655233
0.212825094861
0.212320951862
0.211730600977
0.211085365704
0.210162502879
0.20861685202
0.206594043909
0.20417576783
0.20331878612
0.237138049461
0.236906558749
0.236499222613
0.23589820276
0.235183501899
0.234370491205
0.233521760848
0.232672539497
0.231861969628
0.231117749357
0.230461000595
0.229905619999
0.229459733071
0.229126589729
0.228905124258
0.228789613338
0.228763017423
0.228812024602
0.228916016706
0.229060821308
0.229185774328
0.22927499468
0.229338457163
0.229388030849
0.229428790447
0.229461700361
0.229487093412
0.229505607208
0.229518827831
0.229528382772
0.229535396221
0.229540475616
0.229543961884
0.229546274313
0.229548233101
0.229551226568
0.229557246118
0.22956858482
0.229587388327
0.229615110845
0.229652206847
0.229698024425
0.229751041054
0.229810193835
0.229879663191
0.229972759648
0.230104679719
0.230287367083
0.230524606728
0.230799140249
0.231065822126
0.231255408632
0.231285609383
0.231074926589
0.230558230514
0.22970012825
0.228495852943
0.226976805611
0.225254926632
0.223482017418
0.221542685334
0.21974118282
0.218025425566
0.21654161112
0.215279879106
0.214173575334
0.213144660137
0.212142012481
0.211146569701
0.21010161997
0.208942801927
0.207601408621
0.206099891043
0.204493408336
0.202085223972
0.199261589463
0.195164015127
0.189801167873
0.183357774241
0.178698977801
0.236230827363
0.236026409059
0.235663361764
0.235129348378
0.234496074733
0.233775282755
0.233024203289
0.232272451278
0.231555141408
0.230896110966
0.230313869733
0.229820421482
0.229422897268
0.229124121479
0.228923396613
0.228818464362
0.228783559547
0.228811649124
0.228914086511
0.22906391128
0.229185793546
0.229268174199
0.229326285933
0.229372604109
0.229411938575
0.229445186537
0.229472628894
0.229493623882
0.229508721385
0.229519410842
0.229527216646
0.229533037259
0.229537265654
0.229540193483
0.229542338652
0.229544628575
0.229548538916
0.229555827768
0.229568070464
0.229586191894
0.229610218259
0.22963918665
0.22967132088
0.229705254945
0.229744539767
0.229797385417
0.229865379173
0.22994286368
0.230016422952
0.230056801696
0.23001686552
0.229836589001
0.229452371177
0.22880770609
0.227866420316
0.226620783225
0.225086677781
0.223333163001
0.22150107066
0.219557451225
0.217793451398
0.216068208895
0.214515273342
0.213186320103
0.212015026418
0.210927526787
0.209855194298
0.208751084571
0.207574696582
0.206253226759
0.204700111143
0.202809101322
0.200460574165
0.197547697407
0.193468185581
0.188455205284
0.180984236694
0.170496374836
0.156542276016
0.141704044595
0.235470950236
0.235291003228
0.234969393822
0.234497905104
0.233940225082
0.233304771642
0.232643564409
0.231981034182
0.231348529639
0.230766266767
0.230250434583
0.229811215853
0.229455389567
0.229185931427
0.228999947274
0.228894918568
0.228853679644
0.228865264257
0.228970646414
0.229108587131
0.229216273926
0.229288296345
0.229338846542
0.229378057832
0.229410220425
0.229436976205
0.229460335751
0.229481608183
0.229499011847
0.229511204365
0.229519621635
0.229525869375
0.229530646223
0.229534166495
0.22953658689
0.229538361247
0.229540437072
0.229544130666
0.229550537183
0.229560072877
0.229572252434
0.22958568142
0.229598247279
0.229608339501
0.229618720598
0.229630719369
0.229631149367
0.229598234683
0.229504306138
0.229311782502
0.228974840243
0.228444749751
0.22767747985
0.22664189378
0.225330137781
0.223758047015
0.22196586802
0.220076647013
0.218220762751
0.216251327466
0.214553092281
0.21298264066
0.211612639888
0.210409270068
0.209297330284
0.208202537715
0.207063602003
0.205836669254
0.204461971415
0.202852425472
0.200900344274
0.198466298933
0.195349993161
0.191166594684
0.185851964413
0.178342146011
0.16684360412
0.148960995646
0.119619759426
0.0592651020798
0.234846432843
0.234688676095
0.234405763522
0.233992279444
0.23350432832
0.232947400256
0.232368577741
0.231787607139
0.231232363879
0.230719610538
0.230263753156
0.229872310858
0.229550876767
0.229303091315
0.22912804713
0.229024839452
0.228987174849
0.229002567843
0.229097092817
0.229207600014
0.229293390294
0.229352063823
0.229391846623
0.229419072547
0.229437803226
0.229450676272
0.229460774981
0.229473344763
0.229489741627
0.229503659567
0.22951290138
0.229519455016
0.229524628668
0.229528623906
0.22953132788
0.229532732664
0.229533282823
0.22953375754
0.229534824442
0.229536518916
0.229537893997
0.229537058612
0.229531424233
0.22951911959
0.229501596289
0.229471068145
0.229399089745
0.229249816795
0.228984520389
0.228561104859
0.227938360314
0.22708083432
0.225965064813
0.224585663402
0.222960237482
0.221125482156
0.219160507157
0.217205966422
0.21518469039
0.213498955617
0.211901768511
0.210485123372
0.20925986228
0.208145867528
0.207065098495
0.205943547566
0.204722905967
0.20336020047
0.201780953648
0.199887309165
0.197555188415
0.194619183724
0.190853626413
0.185776440118
0.179350278356
0.1696221135
0.155173353355
0.132499051966
0.0975125860401
0.0431214525603
0.234344626971
0.234207077286
0.233960125113
0.233600067819
0.233176023095
0.232691010418
0.232187537619
0.231681218501
0.231196827468
0.23074697687
0.230342874892
0.229991971706
0.229699849657
0.229471873727
0.229312192058
0.229221933315
0.229193741451
0.229207051405
0.229278331511
0.229356901657
0.229416740747
0.229455991017
0.229478634413
0.22948851499
0.229489500764
0.229485171581
0.229479052183
0.229475761094
0.229482790113
0.22949666306
0.229507293757
0.229514431714
0.229519959702
0.229524264343
0.229527067942
0.229528143485
0.229527443098
0.229525102323
0.229521289242
0.229515719486
0.229507110586
0.229493131383
0.229470612846
0.229437380007
0.229392540852
0.229316736456
0.229166701065
0.228895018893
0.228455246624
0.227804522266
0.226909237918
0.225748872352
0.22432165177
0.222647733157
0.220765580313
0.218736569163
0.216690504889
0.214745910096
0.212746510592
0.211158237545
0.209725799547
0.208480286807
0.207371436353
0.206317735123
0.205245527112
0.204083642146
0.202772705604
0.201267748524
0.199487195288
0.197325892072
0.194647789428
0.191269639341
0.186950571164
0.181222044739
0.173659531078
0.162770027042
0.147382311629
0.123932274444
0.0894406555156
0.042893593683
0.233953204629
0.233833888065
0.233619982292
0.233308644109
0.232942698646
0.232523175309
0.232088445594
0.2316505333
0.231229490417
0.230834272411
0.230474365481
0.230159263255
0.22989669244
0.229692935636
0.22955368358
0.229480179846
0.229454825125
0.229457932682
0.229499011028
0.229543106857
0.229574125685
0.229589632299
0.229590785168
0.229579868821
0.229560470457
0.229536701628
0.229512475463
0.229492335041
0.229483382051
0.229490899072
0.229502887257
0.229511375645
0.229517339525
0.229521782179
0.229524457862
0.229525045506
0.229523202198
0.229518465083
0.229510338243
0.229498090633
0.229480175811
0.229453973775
0.22941574548
0.229363001543
0.229290854497
0.229166063024
0.228931961268
0.228532328494
0.227916432558
0.227044160322
0.225891994933
0.224455624134
0.222755754898
0.220835704246
0.218752968599
0.216610838832
0.21453813988
0.212447984011
0.210804722323
0.209322704509
0.208026782707
0.206907238006
0.205875796008
0.20485232303
0.203767753522
0.202556022667
0.201155803343
0.199506615322
0.197531795001
0.195124199437
0.192138654519
0.188379519803
0.183585635354
0.177321384025
0.168891353389
0.157790962653
0.142348613383
0.119341607301
0.0855409913238
0.0427657639074
0.233659935158
0.233556982641
0.23337303179
0.233105547178
0.232791837001
0.232431417994
0.232058951359
0.231681698767
0.231315397964
0.23096728749
0.230648209955
0.230368461094
0.230136592309
0.229958893428
0.229840082543
0.229781593764
0.229751846416
0.22973772563
0.229746380011
0.229755786709
0.229756541773
0.229745850454
0.229722962457
0.229689360843
0.229648328582
0.229603933632
0.229560299684
0.229522030865
0.229495414037
0.229489624888
0.229500163646
0.229510651605
0.229517381707
0.229521808717
0.229524204335
0.229524076066
0.229520957837
0.229514078072