/*--------------------------------*- C++ -*----------------------------------*\
| =========                 |                                                 |
| \\      /  F ield         | OpenFOAM: The Open Source CFD Toolbox           |
|  \\    /   O peration     | Version:  v1806                                 |
|   \\  /    A nd           | Web:      www.OpenFOAM.com                      |
|    \\/     M anipulation  |                                                 |
\*---------------------------------------------------------------------------*/
FoamFile
{
    version     2.0;
    format      ascii;
    class       volScalarField;
    location    "100";
    object      p;
}
// * * * * * * * * * * * * * * * * * * * * * * * * * * * * * * * * * * * * * //

dimensions      [0 2 -2 0 0 0 0];


internalField   nonuniform List<scalar> 
6400
(
0.172968487506
0.172652780422
0.172338853889
0.172134584042
0.172035888382
0.172170919969
0.172072342146
0.171379246349
0.170076066549
0.16829670311
0.166073469332
0.163468960766
0.160556960147
0.157417404532
0.154131084479
0.150775342052
0.147420928523
0.144129996843
0.140955113899
0.137939108831
0.135115543036
0.132509586391
0.130139108619
0.128015829335
0.126146407133
0.124533398063
0.123176042214
0.122070891751
0.121212283655
0.12059277321
0.120203709836
0.120035871879
0.120079932758
0.120325682246
0.120758308999
0.121360988961
0.12211922703
0.123018761819
0.124044838936
0.125182983379
0.126419381809
0.127741145469
0.129136494793
0.130594888361
0.132107119767
0.133665392797
0.135263384109
0.136896280547
0.138560780548
0.140255036208
0.14197853338
0.143731906339
0.145516710303
0.147335165282
0.149189896855
0.151083674056
0.153019153184
0.154998619382
0.157023741378
0.159095347526
0.16121325354
0.163376145984
0.165581535326
0.167825763
0.170104052349
0.172410556961
0.174738401038
0.17707975898
0.179425982751
0.181767600628
0.184093810149
0.186390852498
0.188638806131
0.190807761413
0.19285670947
0.194735131395
0.196370769427
0.197622903725
0.198279706292
0.198336142652
0.17274157082
0.172364910023
0.172141262868
0.172113444893
0.172062093113
0.171960230239
0.171889925834
0.171233014576
0.169952998816
0.168156913385
0.165900730819
0.163258812503
0.160309864067
0.157136937049
0.153822695759
0.150445447179
0.147076199506
0.143776820847
0.140599213501
0.137585311963
0.134767687186
0.132170530996
0.129810824614
0.127699538048
0.125842743096
0.124242573175
0.122897990473
0.121805364699
0.120958869104
0.120350774658
0.119971833165
0.119812106052
0.11986212235
0.120113209477
0.120554256032
0.121169766692
0.121942734184
0.122856753248
0.123896452007
0.125047148776
0.126294927603
0.127626806318
0.129030879927
0.130496473493
0.132014252563
0.133576341538
0.135176388928
0.136809616911
0.138472789105
0.140164141416
0.141883229406
0.143630755792
0.145408344126
0.147218317888
0.149063439923
0.150946656316
0.152870800295
0.154838310454
0.156850941852
0.158909537197
0.161013838265
0.163162383432
0.165352446045
0.167580037247
0.169839928963
0.172125718948
0.174429915575
0.176744068225
0.179058876346
0.181364121253
0.183648134753
0.185896548659
0.188089998231
0.190201289654
0.192193457145
0.194018424329
0.195609274817
0.196856526711
0.197597605605
0.197753323903
0.172894037703
0.172543516046
0.172228488436
0.17201997962
0.171978592126
0.171728902608
0.171305968315
0.170421453397
0.169018694042
0.167122313428
0.164783247666
0.162076851805
0.159083731239
0.155887423992
0.152569655323
0.149206761442
0.145867092063
0.142609477099
0.139482671363
0.136525584472
0.133768062915
0.131231996377
0.128932548162
0.126879377792
0.12507773379
0.123529353713
0.122233174884
0.121185754051
0.120381494991
0.119812836321
0.119470669779
0.119346040283
0.119433232299
0.119721960769
0.120195958076
0.120839936602
0.121638784029
0.122577066953
0.123639592862
0.124811627097
0.12607909999
0.127428795482
0.128848537767
0.130327370496
0.131855730947
0.133425592427
0.135030560123
0.136665892234
0.138328450641
0.140016584251
0.141729976629
0.143469469452
0.145236877388
0.147034776249
0.148866256006
0.150734621551
0.152643060781
0.154594303003
0.156590312871
0.158632039072
0.160719231927
0.162850314975
0.165022306271
0.167230781848
0.169469900481
0.171732499646
0.174010250744
0.176293819355
0.178572984875
0.1808365328
0.183071747091
0.185263483407
0.18739275334
0.189434765965
0.191356414368
0.193112912145
0.194643663026
0.195861970677
0.196628154971
0.19683567593
0.173582905269
0.173035957279
0.172625323826
0.172240774453
0.171851064661
0.171284541705
0.170473073625
0.169274925656
0.167644740637
0.165584045488
0.163132120449
0.16035448508
0.157326586515
0.154127682981
0.15083504126
0.147520155122
0.144246280696
0.141067162143
0.138026752852
0.135159687235
0.132492233233
0.13004348727
0.127826625817
0.125850081656
0.124118554888
0.122633788774
0.121395125441
0.120399750151
0.119642770839
0.119117393377
0.118815714627
0.118731262048
0.118860417162
0.119190256934
0.119701998848
0.120381886067
0.121214896243
0.12218568066
0.123278959691
0.124479793268
0.125773809158
0.127147423766
0.128588067787
0.130084422953
0.131626641271
0.13320651903
0.134817586682
0.136455109592
0.138116006123
0.13979872236
0.14150308777
0.143230171008
0.144982114001
0.146761920487
0.148573168724
0.15041965995
0.152305032127
0.15423239448
0.15620401153
0.158221049132
0.160283363534
0.162389329114
0.164535709314
0.166717599072
0.168928461249
0.171160290576
0.173403841999
0.175648802208
0.17788395035
0.180097134836
0.18227485331
0.184401666914
0.186459488311
0.188426170455
0.190272971776
0.191960538585
0.193436929776
0.194634535425
0.19541665603
0.195680322518
0.174351700192
0.173774575511
0.173107930517
0.172399119164
0.171594549591
0.170617944053
0.169403218258
0.167861378416
0.165956112221
0.163690178535
0.161098365292
0.158237548625
0.155175399493
0.151983621265
0.148732073441
0.145484951323
0.142298451833
0.139219724811
0.136286834894
0.133529428687
0.130969808182
0.128624155992
0.126503747882
0.124616026239
0.122965451036
0.121554128843
0.120382132268
0.119447540288
0.118746552435
0.118273680168
0.118023410005
0.117993487916
0.118174064702
0.11854912769
0.119104839648
0.119827145975
0.120701086032
0.121711257413
0.122842154995
0.124078470881
0.125405366431
0.126808744346
0.128275538384
0.129794004592
0.131353977779
0.132947046276
0.134566622363
0.136207913629
0.137867835084
0.139544901892
0.141239127277
0.142951908165
0.144685860735
0.146444564339
0.148232211087
0.150053194516
0.151911698725
0.153811329578
0.155754798165
0.157743632715
0.159777906989
0.161855997688
0.163974421532
0.166127786335
0.168308850028
0.170508732286
0.172717241704
0.174922980684
0.177113581001
0.17927590704
0.181395707344
0.183457255843
0.185443284177
0.18733382773
0.18910404861
0.190720033186
0.192136666984
0.193306613007
0.194087305693
0.194404136204
0.174936261103
0.174214027064
0.173292318706
0.172241592121
0.171047278214
0.169669624927
0.168065490216
0.166184057784
0.164004114478
0.161533317726
0.158804499481
0.155868075688
0.152783806144
0.149614676458
0.14642168122
0.143260335596
0.140178623533
0.137216221136
0.134404704298
0.131768396928
0.129325534916
0.127089491478
0.125069899461
0.12327357785
0.12170517037
0.120367536554
0.11926187093
0.118387675523
0.117742866875
0.117323979501
0.11712777955
0.117152439296
0.117385483169
0.117809778136
0.118413623113
0.119183152172
0.12010334727
0.121158525649
0.122332735443
0.123610099533
0.124975140253
0.126413116686
0.127910378408
0.129454703221
0.13103556628
0.132644298176
0.134274125738
0.135920131211
0.137579183504
0.139249878873
0.140932483554
0.142628832181
0.144342126942
0.146076616956
0.147837186849
0.149628919179
0.151456683557
0.153324766727
0.155236519739
0.157193998
0.159197610811
0.161245827113
0.163335005681
0.165459391025
0.167611162299
0.169780615659
0.171956732985
0.174127106394
0.176278241591
0.178396212458
0.180466244896
0.182472252689
0.184397581848
0.186223804253
0.187929046024
0.189484164329
0.190846372411
0.191990415895
0.192760869359
0.193126309714
0.175072679113
0.174097736178
0.172972141856
0.171632927991
0.170105981
0.168380474026
0.166437993563
0.164257674361
0.161835281601
0.159185480058
0.156341042408
0.153347763489
0.150258400171
0.147127526604
0.144007167897
0.140943854215
0.137977012998
0.135138576112
0.132453506039
0.129940863827
0.127615067627
0.125487083888
0.123565413537
0.12185679086
0.120366548089
0.119098719713
0.118055952401
0.117239550899
0.116649572629
0.116285009305
0.11614431095
0.116223014178
0.116508300254
0.116984537115
0.117640337931
0.118461755516
0.119433460853
0.120539257486
0.121762530455
0.123086644479
0.124495332464
0.12597310035
0.127505635722
0.129080172888
0.130685756983
0.132313378153
0.133955995287
0.135608507282
0.137267728222
0.138932379919
0.14060306038
0.142282120393
0.143973405857
0.145681879989
0.147413186633
0.149173216968
0.150967700733
0.152801798425
0.154679674179
0.156604044438
0.15857577368
0.160593560935
0.162653754566
0.164750408852
0.166875322146
0.169017963934
0.17116671645
0.173308386336
0.175428413624
0.177512362057
0.179545294003
0.181510582126
0.18339197287
0.185172013944
0.186830619276
0.188343141472
0.189664284408
0.190791819514
0.19155167301
0.191961518337
0.174333996635
0.173275222926
0.172047033588
0.170501601036
0.168723366025
0.166726435386
0.164517554844
0.162100026062
0.159485505871
0.156696946788
0.153768955779
0.150744547702
0.147670781789
0.144594651594
0.141559608891
0.13860331135
0.135756633582
0.133043820022
0.130483439501
0.128089719706
0.125873883801
0.123845237294
0.122011933461
0.120381350857
0.118960114311
0.117753892126
0.116767037399
0.11600281289
0.115463542524
0.115150729171
0.115064329944
0.115196257652
0.115534136441
0.116064972462
0.116776771687
0.117655084609
0.118683931311
0.119846328283
0.121124773793
0.122501698696
0.123959918177
0.125483093049
0.127056174824
0.128665777734
0.130300428967
0.131950687017
0.133609171507
0.135270570003
0.136931664259
0.138591358001
0.140250640325
0.141912419228
0.143581213265
0.14526275014
0.146963535027
0.148690425193
0.150450194567
0.152249047239
0.154092108344
0.155982887407
0.157922851457
0.159911126808
0.161944228068
0.164016196416
0.166118838339
0.168240720707
0.170370014486
0.172493172823
0.174594539086
0.176659375513
0.178673063897
0.180618167874
0.182478683249
0.184237797151
0.185875797553
0.187372273226
0.188675389086
0.189804090752
0.190561588644
0.191014169663
0.172817285936
0.171774086566
0.170515899466
0.168846156127
0.166903404164
0.164718210565
0.162320821347
0.159734613446
0.156985564393
0.154105100236
0.151130786267
0.148104220747
0.14506788789
0.142061998885
0.139121933008
0.136276828364
0.13354939352
0.130956747098
0.128511861035
0.126225128075
0.124105678373
0.122162247278
0.120403591333
0.118838467801
0.117475283404
0.11632159614
0.115383647207
0.114666530304
0.114174425307
0.113910804588
0.113876787331
0.114061879906
0.114454262647
0.115043182696
0.1158156264
0.116756336521
0.117848410839
0.119073841591
0.120414040768
0.121850350505
0.12336455314
0.124939375829
0.126558951654
0.128209186005
0.129877993132
0.131555415905
0.133233682189
0.134907257773
0.136572912407
0.138229758267
0.139879188992
0.14152467555
0.143171435779
0.144826040465
0.146495989928
0.148189266893
0.149913848703
0.151677110522
0.153485274416
0.15534278671
0.157251868822
0.159212312354
0.161221022366
0.163272144172
0.165358274006
0.167466830851
0.169586239701
0.171703278643
0.173801058695
0.175864787787
0.177880923896
0.179830884068
0.181698802335
0.183468624463
0.185119587728
0.186634231896
0.187952000685
0.189106889882
0.18987779142
0.190376734395
0.170725051953
0.169716626974
0.168458196531
0.166725966631
0.164692638982
0.162394814916
0.159881929344
0.157193034066
0.154366255864
0.151440728165
0.148457202131
0.145456530743
0.142477324974
0.139553636343
0.13671334635
0.133977734946
0.131362217232
0.128877918915
0.126533553821
0.124337092394
0.122296897496
0.120422239247
0.118723283796
0.117210665135
0.115894806648
0.114785203247
0.113889930224
0.113215691163
0.112768049819
0.112551599393
0.112567581444
0.112806193368
0.113256431436
0.1139074788
0.114745497638
0.115754261259
0.116915748316
0.11821073411
0.119619378623
0.12112180319
0.122698655462
0.124331642974
0.126003998048
0.127700832379
0.129409368067
0.131119071376
0.132821745594
0.134511623914
0.136185457956
0.137842551062
0.139484677569
0.141115866225
0.142742072239
0.144370804157
0.146010687546
0.147670948435
0.149360889843
0.151089135775
0.152863136589
0.154688446355
0.156568181328
0.158503087448
0.160490815814
0.162525454429
0.164601665554
0.166705217537
0.16882515728
0.170949637876
0.173060283102
0.175143003858
0.177186979387
0.179171878394
0.181081084638
0.182899762006
0.184605066044
0.18617924827
0.187554091114
0.188767076736
0.189574604671
0.190132111988
0.168191489869
0.167221885491
0.16597931293
0.164228649398
0.162161282567
0.15981276007
0.15724658731
0.154512781446
0.151658909253
0.148730337181
0.145770500598
0.142819557522
0.139912562549
0.137077912061
0.134336718976
0.131703432515
0.129187519019
0.126795688579
0.124534038831
0.122409626924
0.120431263983
0.118609593464
0.116956658581
0.115485137496
0.114207442485
0.113134875752
0.112277120087
0.111642219321
0.111236770294
0.111066062637
0.111131403196
0.11142463481
0.111935470246
0.112652358618
0.11356051893
0.114642578997
0.115879218834
0.117249830232
0.118733179307
0.120308053547
0.121953875427
0.123651257292
0.125382462315
0.127131748129
0.128885595809
0.130632861943
0.132364902335
0.134075694189
0.135761934101
0.137423068483
0.139061211057
0.140680941577
0.142288981531
0.143893843283
0.145505369497
0.147134075547
0.14879069494
0.150485131599
0.152226202463
0.154020805662
0.155873069891
0.157784954465
0.159755396524
0.161777668432
0.163850126826
0.165956267881
0.16808603562
0.17023112287
0.172370890284
0.174492587758
0.176591178758
0.178645023632
0.18063399825
0.182544601279
0.184351796078
0.186032821498
0.187517937235
0.188833387177
0.189713738647
0.190356995788
0.165312326261
0.164390621047
0.163180154695
0.16144470589
0.159385811238
0.157034843139
0.15446512292
0.151733472649
0.148894156431
0.145996969231
0.143087081609
0.140203609632
0.137378153511
0.134633974446
0.131986362098
0.129444286255
0.127012908434
0.124696262213
0.122499433229
0.120429848387
0.118497633307
0.116715261611
0.115096785271
0.113656850539
0.11240968369
0.111368186602
0.110543420266
0.109944526631
0.109578909866
0.109452516882
0.109567082968
0.109916282512
0.110490094897
0.111276098142
0.112258429098
0.113418408234
0.114735253545
0.11618682338
0.117750364592
0.11940323132
0.121123546169
0.122890771823
0.12468616611
0.126493111582
0.128297341953
0.130087103992
0.131853301003
0.13358963277
0.135292695834
0.136962020835
0.138600006773
0.140211764318
0.141804768658
0.143388540186
0.144974199222
0.146573500064
0.148198752171
0.1498611429
0.151570972864
0.153336749281
0.15516362093
0.157054747542
0.159010892995
0.161023237385
0.163095746132
0.165209543617
0.167354719885
0.169531218636
0.171716059157
0.173895179067
0.176069763936
0.178221946362
0.180326355838
0.182370438207
0.18432963569
0.186175300555
0.187838226503
0.189323013987
0.19033481052
0.191116371658
0.16218265399
0.161317555951
0.160153211498
0.158458669652
0.156439876178
0.154122761824
0.151587274356
0.148893772388
0.146100806566
0.143260801641
0.140419574752
0.137614714914
0.134874448619
0.132217533685
0.129654575676
0.127190583794
0.124828100395
0.122570083339
0.120421911096
0.118392271425
0.11649307663
0.114738762712
0.113145304058
0.111729127076
0.11050606761
0.109490444353
0.108694527151
0.108128386692
0.107800114088
0.107716419073
0.107879824085
0.108285945672
0.108924581881
0.109782360824
0.110842199798
0.112083951157
0.113485208175
0.1150221481
0.116670375835
0.118405719485
0.120204938853
0.122046315239
0.123910097949
0.125778815743
0.127637492683
0.12947381098
0.131278249824
0.133044230696
0.13476821305
0.13644975089
0.138091454034
0.139698941739
0.141280397208
0.142846274379
0.144409055366
0.145981570908
0.147577952159
0.149210589098
0.150891227313
0.15263014246
0.154433178167
0.156304390088
0.158246695933
0.16024806606
0.162319905626
0.164445283484
0.16660842817
0.16882137772
0.171065561699
0.173321689312
0.175588637249
0.17785759869
0.180111048058
0.182334279917
0.184503630142
0.186584834213
0.188505714402
0.19024071162
0.191463229184
0.192452847252
0.158897166264
0.158092894944
0.156983424387
0.155347638318
0.153391126817
0.151133700172
0.148659433831
0.146029712978
0.143305384779
0.140539910742
0.137778752125
0.135057551428
0.132401342497
0.129825137578
0.127336081528
0.124936709281
0.122628435137
0.120414406149
0.118301188305
0.116299224912
0.114422370928
0.112686952913
0.111110683088
0.109711563762
0.108506872481
0.107512234506
0.10674104857
0.106204233835
0.105910530792
0.10586756902
0.106078979053
0.106542460336
0.107247193248
0.108178776754
0.109318760133
0.110645358878
0.112134371442
0.113760139223
0.115496499727
0.117317663224
0.119198971138
0.121117507264
0.12305254007
0.124985804623
0.126901696529
0.128787420118
0.130633085078
0.132431855572
0.134180034307
0.135877169362
0.137526013819
0.139132692982
0.140706036858
0.142257284561
0.143800500236
0.145349200183
0.1469195716
0.148524990085
0.150178183506
0.151891258927
0.153670031499
0.155519096861
0.157445183829
0.159434185106
0.161499124496
0.163642325457
0.165833212527
0.168080335047
0.170377947996
0.172714721374
0.175087907477
0.177492910428
0.179920953352
0.182361041994
0.184792817172
0.187179612687
0.189446901196
0.191530810966
0.193076003492
0.19438601674
0.155540725069
0.154797430258
0.153746641128
0.152180399586
0.150300080454
0.148119091823
0.145723631244
0.143174179919
0.140532300353
0.137851188241
0.135175159876
0.132537658971
0.12996084329
0.127456803832
0.125030399071
0.122682977398
0.120415986842
0.118233627942
0.116144160509
0.114159967551
0.112296803701
0.1105727194
0.109006961972
0.107618932087
0.106427233938
0.10544876106
0.104698041511
0.104186837654
0.103924554862
0.103919909929
0.104177918619
0.104698590513
0.105470049071
0.106476770105
0.107698780313
0.109112481943
0.11069169768
0.112408766702
0.114235624694
0.116144772566
0.118110083444
0.120107440853
0.122115184714
0.124114347814
0.126088790657
0.128025340406
0.129913807004
0.131747150866
0.133521580148
0.135236690117
0.136895269944
0.138503995036
0.140072316583
0.141611991655
0.143138969053
0.144666717547
0.14621355074
0.147793583553
0.149419548066
0.151105609122
0.152858398775
0.15468086826
0.156586960494
0.158573489537
0.160630500571
0.162770576684
0.164979665018
0.167257817017
0.169603144872
0.17201253682
0.174487292718
0.177029900619
0.179641341326
0.182319246248
0.185051194692
0.187804185235
0.190505014736
0.193051813983
0.195080253972
0.196875140714
0.152184107704
0.151499686543
0.150508071493
0.149016629278
0.147219667737
0.145124346475
0.142817432614
0.140357074437
0.13780435833
0.135211234659
0.132620342942
0.13006286655
0.127558506785
0.125117241332
0.122742656447
0.120435913984
0.118199291871
0.116038539992
0.113963811201
0.111989407274
0.110132837241
0.108413685385
0.106852549967
0.105470087793
0.104286157674
0.103318941198
0.102584164493
0.102094499085
0.101860082668
0.101890876822
0.102193502042
0.102770572502
0.103608698676
0.104691146445
0.105996257868
0.107498441234
0.109169355652
0.110979160085
0.112897747762
0.114895827726
0.116945773795
0.119022268547
0.121102775953
0.123167726295
0.12520052162
0.127187728126
0.129118986474
0.130987202501
0.132788599341
0.134522916512
0.136192810688
0.137805640396
0.139371343922
0.140901654339
0.142414883532
0.143923427352
0.145447719996
0.147003009864
0.148601637072
0.150258044214
0.151986413709
0.1537881809
0.155665508185
0.157628145248
0.159672515496
0.161801451448
0.164010684357
0.166300191884
0.168671944571
0.171129673621
0.173681299091
0.176338223308
0.179113183599
0.182017000095
0.185051146539
0.188194648738
0.191383603707
0.194487294694
0.197150158859
0.199525455328
0.148885921166
0.14825683756
0.14732262523
0.14590709606
0.144195473769
0.142189144287
0.139974297675
0.137605765836
0.135143336402
0.132637050507
0.130127592462
0.127643986283
0.125203945169
0.122816050743
0.120483411801
0.118207695381
0.115992474855
0.113845252334
0.111778061989
0.109806985904
0.107951106723
0.106231366519
0.104669561917
0.103287487471
0.102106201008
0.101145218876
0.100421578262
0.0999489967197
0.0997385019219
0.0998014884154
0.100146209264
0.100778234545
0.101682223264
0.102840154765
0.104228517904
0.105819548221
0.10758256507
0.109485375725
0.111495689931
0.113582356606
0.115716237585
0.117870796185
0.12002263596
0.122151706737
0.124241060861
0.126277189701
0.12824978071
0.130151822679
0.131979623815
0.133733233132
0.135414751633
0.137032401913
0.138596478815
0.140117759161
0.141617949316
0.143108093299
0.144610826685
0.146142772045
0.147718561288
0.149349909624
0.151041589712
0.152808250167
0.154653877665
0.156583232735
0.158596418188
0.160694459928
0.162876925163
0.165145645586
0.167505840123
0.169966780696
0.172543335829
0.175256286416
0.178131008872
0.181194057901
0.184464991222
0.187941766255
0.191575139343
0.195203764236
0.198477775939
0.201318419264
0.145694396467
0.145116317803
0.14423619296
0.142894656279
0.141266528668
0.139348092285
0.137224146676
0.134945602444
0.13257044865
0.13014643537
0.127712228514
0.125294911617
0.122910673224
0.120567284115
0.118267936811
0.11601521703
0.113814193466
0.111674116498
0.109608758717
0.107635787529
0.105775676878
0.104050581697
0.102483377418
0.101096888221
0.0999132891176
0.0989534616144
0.0982358707442
0.097775488107
0.0975846189306
0.0976764732334
0.0980603951836
0.0987451640513
0.0997133482667
0.100945549852
0.102416216499
0.104095250484
0.105949497673
0.107944270911
0.110044941694
0.112218410199
0.114434041296
0.116664074817
0.118884235853
0.121074230133
0.123216934692
0.125298930583
0.127310175229
0.129243796571
0.131096108425
0.132867445409
0.134558854436
0.13617995737
0.137741306123
0.139252285729
0.14074043849
0.142216356271
0.143702808351
0.145216932966
0.14675865744
0.148352099872
0.150006508423
0.151731532358
0.15353222196
0.155411706733
0.15737062506
0.159409252335
0.161528119789
0.163730089607
0.166022131755
0.168416732565
0.170933475406
0.173600012012
0.176451584379
0.179527846747
0.182863527126
0.186471021118
0.190291130603
0.194088465503
0.197789236089
0.201676201296
0.142649672466
0.14211760605
0.141287125623
0.140015476283
0.138466288927
0.1366314937
0.134593948793
0.132400337439
0.130106614507
0.127758084061
0.125391496618
0.123032283722
0.120695534364
0.11838864936
0.116115255092
0.113879042501
0.111686583131
0.109548737591
0.107480802007
0.105501808449
0.103633450041
0.101898978025
0.100322259009
0.0989270447673
0.0977364878204
0.0967728352178
0.0960560487577
0.0956025534567
0.095426684931
0.0955447008863
0.0959650075073
0.0966988063372
0.0977284581344
0.0990326054048
0.100583388447
0.102348213142
0.1042913611
0.106375544779
0.108563629694
0.110820428492
0.113113915519
0.115415251434
0.117699252291
0.119945636743
0.122137299281
0.124260907136
0.126306885399
0.128268246701
0.130141060123
0.131926342354
0.133623326167
0.135244453108
0.136802324039
0.138305803728
0.139787665554
0.141258357492
0.14272030671
0.144198890966
0.145706664902
0.147259895329
0.148868966317
0.150541376959
0.15228109518
0.154089419265
0.155965614403
0.157908327495
0.159916867244
0.161992894932
0.164142181425
0.166376228893
0.168713867731
0.171182466463
0.173817897066
0.176661290126
0.179747188799
0.183074025068
0.18648833285
0.189727826071
0.193484094272
0.199621899127
0.139784526225
0.139293283996
0.138507393018
0.137300099857
0.135823527594
0.134066035613
0.132108199269
0.1299923967
0.127772514234
0.125491424652
0.123184180442
0.12087488303
0.118577892584
0.116300550958
0.114047096503
0.111822344541
0.109634247647
0.107495062527
0.105421359907
0.103433309981
0.101553660017
0.0998066688639
0.0982171502728
0.0968097374644
0.0956084785979
0.0946367963978
0.0939160682202
0.0934642842134
0.0932982666856
0.093437629434
0.0938905597388
0.0946697788202
0.0957574444708
0.0971301771848
0.0987576179179
0.100604489549
0.102632441936
0.104801632189
0.107072343978
0.109407128079
0.111772773138
0.114139738897
0.116481772766
0.11877872389
0.121013708934
0.123173043169
0.125247770216
0.127230845092
0.129117809193
0.130911144904
0.13260891751
0.134229592499
0.135789325777
0.137296995789
0.138768330301
0.140211254068
0.141644706303
0.143088651937
0.144557586409
0.146064552988
0.147618533605
0.14922464106
0.15088434275
0.152596120433
0.154356334228
0.156160408321
0.158004081412
0.159884742493
0.161802725947
0.163762390036
0.165772877775
0.16784820804
0.170005856023
0.172261670676
0.174615385572
0.177007383961
0.179148432657
0.18064099722
0.181788840641
0.18643624839
0.137126095439
0.136670317908
0.135923642037
0.134774341658
0.133363053418
0.13167531244
0.129789231738
0.12774296948
0.125588455708
0.123366261602
0.12111003198
0.118842867599
0.116578718761
0.114325076306
0.112086844961
0.109869869667
0.107683284986
0.105540492462
0.103459080231
0.101460129005
0.0995672711897
0.0978056814205
0.0962010871468
0.0947789820816
0.09356424552
0.0925812448658
0.0918525440737
0.0913976569711
0.0912361218297
0.0913910298441
0.0918718094333
0.0926924430788
0.0938338427891
0.09527067385
0.0969698474383
0.098893149402
0.100999620395
0.103247189585
0.105593778037
0.107999409848
0.110429747193
0.112855129181
0.115247964702
0.117587877229
0.119858440056
0.122045460313
0.124140813879
0.126137512108
0.128031222167
0.129828691394
0.131529546124
0.13315813268
0.134721972574
0.136214860479
0.137660576329
0.139075594032
0.140477591006
0.141883882951
0.143308197963
0.144760924022
0.146248249144
0.147772033023
0.149330145886
0.150917115647
0.152524959545
0.154144131194
0.155764416683
0.157375648102
0.158968039407
0.160531844523
0.162055869701
0.163523933086
0.164907335619
0.166149053962
0.16712929408
0.167580198132
0.166917263953
0.162823025869
0.148437668397
0.0978151898392
0.134696165112
0.134270708638
0.133557941248
0.132459960332
0.131106240291
0.129480177665
0.127657369376
0.125671948336
0.123574100153
0.121402296008
0.119189104448
0.116956950676
0.114719653088
0.11248499107
0.110258511754
0.108046928047
0.105860316041
0.10371295892
0.101623207267
0.0996128200433
0.0977061177388
0.0959290555827
0.0943082154334
0.0928699314141
0.0916398607594
0.0906431533531
0.0899032750346
0.0894410553597
0.089278975811
0.0894440357477
0.0899476422609
0.0908047639306
0.0919943489392
0.0934891591075
0.0952532746651
0.0972453320826
0.0994217697515
0.10173878776
0.104152574831
0.106620275024
0.109105977827
0.111580459888
0.114014577336
0.116387497446
0.118683884214
0.120888668698
0.122995350995
0.124998756673
0.126896779378
0.128701317666
0.130414467677
0.132038754977
0.133580504259
0.135051659899
0.136470756339
0.137855178819
0.139221781296
0.140585739756
0.141958572827
0.143347494418
0.144754983762
0.146178763102
0.147612172949
0.149044779693
0.150463058441
0.15185100093
0.153190459452
0.15446099295
0.155638884596
0.156694786782
0.157589057975
0.158263006951
0.158622476416
0.158506280228
0.157622832342
0.155417482042
0.150781579447
0.141357749142
0.119352458753
0.0722801655247
0.132512478805
0.132112380445
0.131428444718
0.130375176163
0.129071396913
0.127498948071
0.125730947973
0.123797760517
0.121748102888
0.119618585751
0.117441055602
0.115237578509
0.113022095261
0.110802776742
0.108585751551
0.106378407711
0.104191506618
0.102039950542
0.0999426067827
0.0979216777783
0.0960019437199
0.0942099447534
0.0925730120157
0.0911182991137
0.0898722169668
0.0888605280896
0.0881072657123
0.0876342954255
0.0874673285763
0.0876378021026
0.0881593234079
0.0890471044003
0.0902776149145
0.0918222702024
0.0936425337377
0.0956938910939
0.0979299118457
0.100305338831
0.102775356824
0.105294072844
0.107823375609
0.110334958455
0.112798631941
0.115192698379
0.117503848413
0.119717114322
0.121829199855
0.123838156751
0.125745593543
0.12755190662
0.129252040886
0.130855465434
0.132372919539
0.133817669764
0.135206534164
0.136556456197
0.137882951624
0.139198697292
0.140512072546
0.141826415193
0.143139770135
0.144445020463
0.14573030328
0.146979541839
0.148172906535
0.149287013278
0.150294626979
0.151163565935
0.151854350937
0.152315865294
0.152477760895
0.152237356433
0.15143683324
0.14982288043
0.146973410737
0.142163712307
0.134109579808
0.120549410267
0.0969444518311
0.058526267597
0.130588469491
0.130209418977
0.129549752335
0.128534999709
0.127273989743
0.125747492335
0.124026250535
0.122137139416
0.120127720885
0.11803300043
0.115884471204
0.113704152868
0.111506355937
0.109299736625
0.107090938305
0.104887828003
0.102701596708
0.100547510699
0.0984447220642
0.0964156521458
0.0944852977067
0.0926805307215
0.0910292391915
0.0895593120785
0.0882978542762
0.0872710896988
0.0865034504738
0.086017799252
0.0858430492862
0.0860146343688
0.0865486239434
0.0874601424539
0.0887229953496
0.0903079524862
0.0921737261108
0.0942730074863
0.0965565344934
0.0989770342648
0.101489389046
0.104045297123
0.106604037521
0.109138488643
0.111618495107
0.114021841838
0.116338693927
0.118555138531
0.120671614249
0.12268335115
0.12458068062
0.126366943999
0.128044845946
0.129622314718
0.131110627345
0.132523786664
0.133877846198
0.135188587624
0.136469509515
0.137730226337
0.138975257121
0.140203436126
0.14140785283
0.142576137996
0.143690918313
0.144730245746
0.145667803869
0.146472681145
0.147108463395
0.147531305816
0.147686482852
0.147502618158
0.146882297065
0.145686892269
0.143711940619
0.140646989518
0.136009489051
0.129038730994
0.118515723548
0.102568685472
0.0778130823915
0.0438810946897
0.128934073056
0.128572675474
0.127933258897
0.126951471776
0.125726771786
0.124239247733
0.122557399109
0.120704883322
0.118728436634
0.116661716762
0.114536249758
0.112374330837
0.110190897897
0.107995194396
0.10579432668
0.10359646103
0.101412972541
0.0992592484358
0.0971545075393
0.0951211893715
0.0931842817489
0.0913707067329
0.0897086142749
0.0882264132507
0.0869518263783
0.0859116359009
0.085130841606