/*--------------------------------*- C++ -*----------------------------------*\
| =========                 |                                                 |
| \\      /  F ield         | OpenFOAM: The Open Source CFD Toolbox           |
|  \\    /   O peration     | Version:  v1806                                 |
|   \\  /    A nd           | Web:      www.OpenFOAM.com                      |
|    \\/     M anipulation  |                                                 |
\*---------------------------------------------------------------------------*/
FoamFile
{
    version     2.0;
    format      ascii;
    class       volScalarField;
    location    "100";
    object      pa;
}
// * * * * * * * * * * * * * * * * * * * * * * * * * * * * * * * * * * * * * //

dimensions      [0 2 -2 0 0 0 0];


internalField   nonuniform List<scalar> 
6400
(
-0.796382008488
-0.795790546231
-0.794366502891
-0.794307334533
-0.794038435064
-0.793744143235
-0.794536354225
-0.797069566233
-0.800413975086
-0.803687580282
-0.806598336198
-0.808564358319
-0.80904858046
-0.808116942233
-0.80683362611
-0.806841820425
-0.809425652151
-0.814792007204
-0.822111928273
-0.830089549346
-0.837562109313
-0.843824703042
-0.84867151264
-0.852255925297
-0.854903564854
-0.856951273635
-0.858656562697
-0.860166633309
-0.861535699485
-0.862758501002
-0.863809717563
-0.864668585774
-0.865330231771
-0.865795374302
-0.866043394823
-0.866047569166
-0.866017839883
-0.867136364019
-0.870631062048
-0.877161751394
-0.886715338004
-0.899221698778
-0.914838922388
-0.93381653971
-0.956256287038
-0.981903270493
-1.00993537588
-1.03878710567
-1.06605763273
-1.0886386207
-1.10319579667
-1.10694830514
-1.09862574333
-1.07891200554
-1.05079086166
-1.01808168038
-0.986344571516
-0.9572953073
-0.93932637245
-0.924467278217
-0.917670482276
-0.914346362177
-0.908180117224
-0.896593986074
-0.879322527047
-0.858840547921
-0.838626540873
-0.822490788844
-0.81319716479
-0.808783152783
-0.807767181501
-0.809604498671
-0.813890753121
-0.820078846642
-0.827719187329
-0.836383058529
-0.844903637308
-0.851046791831
-0.853124641753
-0.853819509949
-0.797822523015
-0.797465936173
-0.795480415091
-0.792918165873
-0.785819701755
-0.770480994773
-0.746220340111
-0.71446688958
-0.675991183562
-0.631211463414
-0.581681891306
-0.529507606216
-0.475893369236
-0.421482916165
-0.367446190881
-0.315763149655
-0.268276960371
-0.225925829007
-0.188708967718
-0.15605004217
-0.127203833607
-0.101523709762
-0.0785780166708
-0.058135110586
-0.040097140539
-0.0244124964202
-0.0110216394918
0.000176936358807
0.00932000611102
0.0165685618086
0.0220758342954
0.0259688249162
0.0283198449146
0.0291391848797
0.0283797512415
0.0261326538054
0.0231741789537
0.020910724025
0.0194150427302
0.0170533038512
0.0127800898858
0.00620014918175
-0.00310163685981
-0.015901081313
-0.0334487495971
-0.0575575648459
-0.0905888085824
-0.135250356376
-0.194007722867
-0.268109208195
-0.356403646687
-0.454508319853
-0.555028240001
-0.649018667687
-0.728652802991
-0.789234474447
-0.831628769005
-0.857628570575
-0.872351912445
-0.878040488157
-0.8622918213
-0.827768826738
-0.782816201744
-0.739626725853
-0.705307143986
-0.683680718329
-0.674625633471
-0.675171664274
-0.680361684543
-0.690152516902
-0.704925389316
-0.724065818562
-0.746176986431
-0.769508774706
-0.792645622156
-0.814568514183
-0.833274345591
-0.845968598743
-0.854149681229
-0.86047267092
-0.80227052443
-0.796125287311
-0.787763117069
-0.777147369478
-0.759542517073
-0.733170410382
-0.699515230113
-0.661835760834
-0.622981524418
-0.584566015112
-0.547451627776
-0.512418971845
-0.480117719855
-0.451009729332
-0.425727696836
-0.405147467366
-0.389929496084
-0.380152049224
-0.375334926037
-0.374665379348
-0.377226830884
-0.382164961037
-0.388776786475
-0.39653602074
-0.405069074738
-0.414113281571
-0.423471265235
-0.432982579218
-0.442507963295
-0.451931350509
-0.461163527395
-0.470152698676
-0.478889766241
-0.487425774843
-0.495955039412
-0.505077948977
-0.515888001626
-0.528399353865
-0.541933638888
-0.555899709397
-0.570512512224
-0.586151394392
-0.602896835122
-0.620470956329
-0.638215903115
-0.65508626016
-0.669825682754
-0.681437444645
-0.689939653407
-0.697036025536
-0.706119982641
-0.721072375526
-0.744205478772
-0.774265790951
-0.806444587059
-0.833427594918
-0.849922452269
-0.846900134052
-0.833696641469
-0.836708413514
-0.840030732264
-0.831722963198
-0.820504138366
-0.814994127898
-0.814327178492
-0.81519208461
-0.81387900646
-0.808820171915
-0.802325979288
-0.797944251828
-0.797256029523
-0.800525512361
-0.807067112388
-0.815622001282
-0.825421087074
-0.836526752399
-0.846243918385
-0.847058434763
-0.845440006082
-0.869041471051
-0.813391427763
-0.787795656447
-0.766133887669
-0.745435432998
-0.718046360473
-0.68460418689
-0.647817658512
-0.610514586039
-0.574816695326
-0.541507374843
-0.51035599738
-0.481166028036
-0.454175850385
-0.429778340245
-0.408277024428
-0.389858420335
-0.374586062551
-0.362330016583
-0.352753126663
-0.345377189669
-0.339675803118
-0.335151797939
-0.331393139897
-0.328097039246
-0.325070884151
-0.32221033833
-0.319473089678
-0.316849484652
-0.314346159053
-0.311974877142
-0.309754138499
-0.307710101814
-0.30588690705
-0.304320973687
-0.302969657839
-0.301702313541
-0.300885814191
-0.301639009027
-0.304527742726
-0.30958033104
-0.31730951284
-0.328671722456
-0.344792885031
-0.366891815376
-0.396177278666
-0.433536045951
-0.478970612373
-0.530985785676
-0.586330995482
-0.640631405527
-0.690009816279
-0.732879367015
-0.770548444316
-0.805433604352
-0.838346212772
-0.865092282502
-0.87581499879
-0.84908198727
-0.810170032977
-0.808320238131
-0.820684358891
-0.825724615323
-0.826313274029
-0.824220083296
-0.817926913406
-0.808496349708
-0.79848065045
-0.790915090548
-0.78715543009
-0.786866676584
-0.789714356542
-0.795485221504
-0.803483505842
-0.812546311909
-0.822418690384
-0.834531891156
-0.845805995862
-0.841567528993
-0.828585164628
-0.875693895748
-0.830923573678
-0.754282248045
-0.726505666668
-0.701945216771
-0.669422108945
-0.635689390389
-0.603368971015
-0.57341876568
-0.546948433056
-0.524093738526
-0.504085023705
-0.486229977513
-0.470378829554
-0.456682757727
-0.445258570736
-0.436108841542
-0.429184083826
-0.424393079214
-0.421570935907
-0.420473919698
-0.420804022339
-0.42224811141
-0.424513346695
-0.42735523869
-0.430588412687
-0.434085613901
-0.437763586088
-0.441567360742
-0.445455080129
-0.449392386684
-0.45335080728
-0.457314102047
-0.461299832848
-0.465406677283
-0.469796233502
-0.474525716375
-0.479254515083
-0.483937625467
-0.488712646938
-0.493558098759
-0.498516343457
-0.50378471275
-0.509660588455
-0.516569421173
-0.525203035166
-0.536665626415
-0.5524853604
-0.574282914219
-0.602980707147
-0.637826999199
-0.676114487907
-0.714384423243
-0.750827038638
-0.786525598131
-0.823548209699
-0.858310635647
-0.867371077855
-0.824612187615
-0.779408213478
-0.78305857076
-0.799320916369
-0.808322487386
-0.811528544506
-0.809683989544
-0.803996406899
-0.797330012902
-0.791694807791
-0.787971180228
-0.786110691394
-0.786273209262
-0.788693913663
-0.79335212418
-0.799678895537
-0.806615048384
-0.814352830797
-0.825815943108
-0.838439902091
-0.830244742249
-0.804109256456
-0.881840223784
-0.847334642866
-0.691111105258
-0.679115376115
-0.655844914539
-0.620820760237
-0.592272860005
-0.569928521458
-0.551199884358
-0.535925111736
-0.523697993355
-0.513377581667
-0.504068337358
-0.49551750458
-0.487845038987
-0.481205280016
-0.47566735803
-0.471243894287
-0.467918205044
-0.465632825698
-0.464272772098
-0.463670002027
-0.463623300508
-0.463927147571
-0.464397272381
-0.464889550692
-0.465306027446
-0.465591813069
-0.465723265556
-0.465697314166
-0.465522278422
-0.465213771435
-0.46478728691
-0.464267942146
-0.463682314926
-0.463124363155
-0.462826343412
-0.463018860608
-0.463864768635
-0.465634706602
-0.46863276544
-0.473204279744
-0.479770962276
-0.488787723113
-0.500658898673
-0.515648085332
-0.533811663877
-0.555021896833
-0.579133998626
-0.60615884017
-0.63605206136
-0.668040174259
-0.700282750153
-0.731498295364
-0.763328958144
-0.800247515365
-0.834875103283
-0.829659871813
-0.77347485998
-0.741301554558
-0.759337413451
-0.780754330003
-0.792143142173
-0.796170384699
-0.79485016912
-0.790655741752
-0.785973049028
-0.782025635414
-0.779451914788
-0.778443319806
-0.779115809959
-0.781553474899
-0.785741601894
-0.791147314743
-0.796702832938
-0.802785117185
-0.813595149376
-0.827785493914
-0.81644318193
-0.774771759629
-0.888000579511
-0.859626216292
-0.603899005886
-0.628158834082
-0.605164302348
-0.572609290866
-0.556366742707
-0.548167207967
-0.541941695685
-0.537230888471
-0.533696662514
-0.530325379534
-0.526483602765
-0.522177971065
-0.517716316914
-0.513408247935
-0.509471294943
-0.506050040568
-0.503244952747
-0.50111108534
-0.499645890165
-0.498786206695
-0.498422367475
-0.498421488068
-0.498653346996
-0.499010054221
-0.499417379879
-0.499836138191
-0.500256080203
-0.500685106759
-0.501141773058
-0.501654608163
-0.502260509695
-0.502967872473
-0.50376773313
-0.504644654778
-0.505588798239
-0.506645379971
-0.507844684141
-0.50925401654
-0.510986488073
-0.513213211563
-0.516206689425
-0.520382296415
-0.526317781979
-0.534723961274
-0.546317050039
-0.561577940012
-0.580547425045
-0.602897709546
-0.628177063315
-0.655752749135
-0.684196435171
-0.712254567497
-0.742193600403
-0.778474985834
-0.80303963248
-0.773670816119
-0.714470454043
-0.705156656214
-0.737132233327
-0.762743798033
-0.775744599532
-0.780479331941
-0.780420292754
-0.778355574475
-0.775968512612
-0.77393965101
-0.772634439565
-0.772258141691
-0.772976810298
-0.774910983555
-0.778110265744
-0.782122278294
-0.785874177503
-0.789769576605
-0.799087735872
-0.814213477005
-0.799975058335
-0.741016087915
-0.894220730202
-0.866803887993
-0.494599458623
-0.57430174333
-0.553149835285
-0.532369365494
-0.53334895016
-0.539148454725
-0.543356433762
-0.546417736547
-0.548364085972
-0.548610175994
-0.547041798231
-0.544059902596
-0.54020805275
-0.535956243444
-0.531660277738
-0.527588706009
-0.523945591397
-0.520869513787
-0.518421752516
-0.516584948618
-0.515277926601
-0.514381926919
-0.513768960562
-0.513325840734
-0.512969583171
-0.512652848912
-0.512358237366
-0.512088084605
-0.511859089365
-0.511690465038
-0.511600853314
-0.511609053776
-0.511733934978
-0.51199419998
-0.51241761912
-0.513063038201
-0.514006493439
-0.515343794992
-0.517193316103
-0.519695010355
-0.523019660728
-0.527385384928
-0.533079652834
-0.540477842852
-0.550028948886
-0.562148445105
-0.577049457269
-0.59474073088
-0.615227148068
-0.638593135079
-0.664091765458
-0.690922983058
-0.721798239505
-0.755837751902
-0.761397431963
-0.710435740799
-0.662177365543
-0.676074410349
-0.716482217775
-0.74390295964
-0.75801843628
-0.764153155811
-0.7662700954
-0.766743585944
-0.766625207657
-0.766292415094
-0.766031672931
-0.766142396507
-0.766808026268
-0.768159991902
-0.77030706299
-0.772867322699
-0.774736475272
-0.776215989178
-0.783418409327
-0.798664459787
-0.781217225258
-0.703538215932
-0.900681301329
-0.869490060527
-0.364654820359
-0.519989293946
-0.503776459756
-0.502623652684
-0.520743326074
-0.537459345956
-0.549096123131
-0.557098666248
-0.561790932014
-0.563185192318
-0.561793196168
-0.558413567383
-0.55379876657
-0.548552180387
-0.54314034604
-0.537930373861
-0.533207857968
-0.529166783212
-0.525895173191
-0.523378496016
-0.521523472439
-0.520192039021
-0.519237286462
-0.518528988942
-0.517967349447
-0.517492344743
-0.517080485457
-0.516732713761
-0.516462330825
-0.516287031692
-0.516223180211
-0.516290197448
-0.516506085024
-0.516885731844
-0.517445219777
-0.5182125619
-0.519227760711
-0.520544031256
-0.522232869186
-0.524391959356
-0.52715467703
-0.530699841166
-0.535260035755
-0.541115060661
-0.54856645668
-0.557861722774
-0.569137001236
-0.582567784645
-0.598633143473
-0.618271038334
-0.641605932284
-0.668592915676
-0.700832135709
-0.726833185553
-0.708707247459
-0.648773692215
-0.621857959037
-0.654251891488
-0.697938958475
-0.725569394027
-0.740742921982
-0.748917335272
-0.753707634581
-0.756835421513
-0.75891008362
-0.760137176549
-0.760766262627
-0.761173784811
-0.761592180005
-0.762187849939
-0.76312247592
-0.764074524627
-0.763898957992
-0.76272509565
-0.767258991954
-0.781657004974
-0.76020847286
-0.662892784458
-0.907321138974
-0.867976083972
-0.219485667002
-0.470396568016
-0.458919015908
-0.482168588235
-0.514685714597
-0.539174378821
-0.555817246033
-0.566585335638
-0.572125037132
-0.573172011696
-0.570844727463
-0.566267852023
-0.56035230776
-0.553804727941
-0.547172792329
-0.540894827952
-0.53531073661
-0.530635387573
-0.526941266422
-0.524175105065
-0.522197957566
-0.52083161519
-0.519892875517
-0.519224157566
-0.51871161223
-0.518286431856
-0.517917124741
-0.517598171407
-0.517338955443
-0.517157911443
-0.517080958651
-0.517139123
-0.517364319065
-0.517785383069
-0.518427381757
-0.519312381114
-0.520459564526
-0.521886386274
-0.523614168918
-0.52567514834
-0.528120600802
-0.531031261922
-0.534529117593
-0.538788187417
-0.544034950529
-0.550465833036
-0.558229437294
-0.567699208625
-0.57999893536
-0.596785664689
-0.618954846544
-0.64688200272
-0.677341272363
-0.687419966887
-0.648930590112
-0.595169866836
-0.593294862377
-0.638056247839
-0.681998952197
-0.709420788209
-0.725914164381
-0.736487900788
-0.744016441037
-0.749589385108
-0.753522714827
-0.755959184495
-0.757191375254
-0.757670082913
-0.75766486462
-0.757383484846
-0.75701336137
-0.756270319197
-0.753957153023
-0.749996959588
-0.751445804201
-0.763916982173
-0.737178514262
-0.619885289513
-0.913612004495
-0.861590419139
-0.0658923817594
-0.430444136778
-0.418327568236
-0.468613289836
-0.511802214245
-0.541654559746
-0.561501000968
-0.573471291711
-0.578699115686
-0.578665580322
-0.574983108118
-0.569011288312
-0.56177880382
-0.554072568504
-0.546493818134
-0.539526941953
-0.533533013489
-0.528702448528
-0.52504524772
-0.522436254233
-0.520683704034
-0.519568179043
-0.518874487914
-0.518425544089
-0.518102233474
-0.517836220411
-0.51759527389
-0.517370827048
-0.51717058205
-0.517016755955
-0.516944801706
-0.516999843674
-0.517229711779
-0.517676949915
-0.518371319223
-0.519324973835
-0.520532481313
-0.521976178468
-0.523633677547
-0.525482858637
-0.527500278605
-0.529663437611
-0.531980526114
-0.53452073472
-0.537458782979
-0.541029750473
-0.545551009007
-0.551594816149
-0.560866108144
-0.576054321491
-0.598432825672
-0.626300447511
-0.648560204774
-0.638682194325
-0.589883054526
-0.553681474412
-0.574629684691
-0.626201727852
-0.669143313344
-0.696648539513
-0.714830216979
-0.727885273284
-0.737856219098
-0.745394132739
-0.750740137324
-0.754046579173
-0.755624173834
-0.755960399205
-0.755355399694
-0.754088580512
-0.752367041983
-0.749917114459
-0.745476716288
-0.738754077512
-0.736914771008
-0.746406194595
-0.712795525232
-0.576075014932
-0.918882638802
-0.849175230276
0.0886660025841
-0.403145486943
-0.380668612289
-0.459725916008
-0.509772703611
-0.543606257348
-0.565473316578
-0.577672479297
-0.582013165145
-0.58066259199
-0.575596923958
-0.568340811403
-0.560018780209
-0.551479327119
-0.543356765541
-0.536159179836
-0.530223496855
-0.525655049772
-0.522361859463
-0.520163436772
-0.51883525156
-0.518116108749
-0.517760475165
-0.517585240299
-0.517478131269
-0.51737955511
-0.51726217097
-0.517117586668
-0.516953858033
-0.516798712199
-0.516699710605
-0.516718286575
-0.516918578925
-0.517353423899
-0.51805125569
-0.519008216745
-0.520190944065
-0.521547048246
-0.523012848205
-0.524513260049
-0.525952562865
-0.527193946323
-0.528095543181
-0.528769132594
-0.529464861763
-0.530414145586
-0.532066414238
-0.535507057476
-0.5432122712
-0.558357172977
-0.581046684417
-0.605128594742
-0.613410760562
-0.586183577864
-0.539244145577
-0.525771364871
-0.564120688133
-0.61838042477
-0.660076683043
-0.688125889743
-0.708188351436
-0.723501873348
-0.735479151893
-0.74463782892
-0.751151369804
-0.754942956425
-0.756408785475
-0.756223763327
-0.754805362824
-0.75250711885
-0.749500771247
-0.745486122993
-0.739128355592
-0.729943276529
-0.725004627607
-0.730779472138
-0.688897320576
-0.534943716772
-0.923750444622
-0.83066385165
0.237151264189
-0.388316566099
-0.344171040644
-0.453969131484
-0.507310641046
-0.544593591516
-0.567671591031
-0.579529036389
-0.582749184717
-0.580088511091
-0.573773143802
-0.565449334077
-0.556324369563
-0.547298288147
-0.539037005664
-0.532048415919
-0.526571569556
-0.522555779907
-0.519813469094
-0.518163424837
-0.517344352764
-0.517054285914
-0.517031757781
-0.517101219902
-0.51716757321
-0.517187974344
-0.5171455394
-0.517035536044
-0.516868398899
-0.516678537742
-0.516524195402
-0.516479490803
-0.516618869826
-0.516997998014
-0.517638563277
-0.51851921765
-0.519581820277
-0.520745428403
-0.521909005215
-0.522930550102
-0.523617045579
-0.523749273985
-0.523071961597
-0.521780835931
-0.520433752691
-0.519378579526
-0.519165256717
-0.521294883559
-0.528866555138
-0.544491507773
-0.5655504078
-0.581221992497
-0.573677145462
-0.536794771003
-0.50168618504
-0.510680948309
-0.560431582068
-0.614832968757
-0.655475466866
-0.684348716404
-0.706187884483
-0.723434195185
-0.737164998629
-0.74754693129
-0.754179265464
-0.757443212785
-0.758345304566
-0.757616425072
-0.75552960298
-0.752440751808
-0.7484719774
-0.743250168658
-0.735401933478
-0.724370872478
-0.717023200597
-0.718900815282
-0.668061945042
-0.501715081735
-0.930850783044
-0.806556165396
0.374221400846
-0.383373180406
-0.307641398677
-0.450585589811
-0.503916533657
-0.544697274323
-0.568364221097
-0.579587090158
-0.581640896438
-0.57777614599
-0.570381029115
-0.561197705289
-0.55150848122
-0.542284242238
-0.534257091812
-0.527878006315
-0.52317222901
-0.519872584899
-0.517780066472
-0.516719107199
-0.516394012199
-0.516486251381
-0.516736161639
-0.516984294104
-0.517159302417
-0.517240893678
-0.517227753484
-0.517120904877
-0.516932828718
-0.516699731453
-0.516480899498
-0.516353152898
-0.516393549889
-0.516656568627
-0.517160383184
-0.517874310451
-0.518723699877
-0.519601285615
-0.520363663501
-0.520787925661
-0.520519201719
-0.519229649825
-0.516859192117
-0.513926175307
-0.511219706329
-0.509078666818
-0.508096224712
-0.510083754215
-0.518192521489
-0.533396954687
-0.54973246712
-0.5538725227
-0.533156794589
-0.495924199513
-0.478375138109
-0.506320708089
-0.56245835937
-0.615733080692
-0.655589427007
-0.685272605603
-0.70855998352
-0.727323338523
-0.741971394635
-0.751601163378
-0.756550266466
-0.758619075906
-0.759158147819
-0.758444875324
-0.756386865016
-0.753128438544
-0.7488306066
-0.74298799548
-0.734199620943
-0.722108781881
-0.713343702332
-0.711279942167
-0.650956371712
-0.479443322959
-0.941095355046
-0.777796220156
0.496352173937
-0.384956894527
-0.271010807122
-0.449273900586
-0.499548182765
-0.544214175437
-0.567915335614
-0.578388602325
-0.579304615853
-0.574354465708
-0.566016156883
-0.556106803158
-0.545989296504
-0.536798302948
-0.529378552406
-0.523978118594
-0.520253190137
-0.517747355143
-0.516317735572
-0.515781591192
-0.515862082661
-0.516255081916
-0.516711535229
-0.517087484116
-0.517332456068
-0.517445966804
-0.517437978475
-0.517315733927
-0.517085860652
-0.516772518724
-0.516441823605
-0.516184783139
-0.516087614808
-0.516201041543
-0.516530967262
-0.517036270905
-0.517625158124
-0.518155489542
-0.518405233327
-0.518009881746
-0.516492812657
-0.513618818007
-0.509791994875
-0.505914554528
-0.502699480754
-0.500299808439
-0.499355644765
-0.501851914477
-0.510270925083
-0.5232161183
-0.532028440166
-0.524289621542
-0.496077479556
-0.466466150676
-0.468046933266
-0.510231135356
-0.569199641053
-0.620860612258
-0.660056884989
-0.690275550423
-0.714508972739
-0.733796360956
-0.747010880414
-0.754013936647
-0.757261911917
-0.758705867361
-0.759204193487
-0.758699080078
-0.756929728811
-0.753867623611
-0.749711775068
-0.743982419441
-0.734967326977
-0.722802480059
-0.713737548555
-0.706944019266
-0.634933656407
-0.464887334558
-0.946590066336
-0.745446467893
0.602060368287
-0.389921069253
-0.235154734683
-0.449821536037
-0.49442629022
-0.543500507035
-0.56669729437
-0.576411982428
-0.576229163457
-0.570287891711
-0.561082708444
-0.550480669721
-0.5399875385
-0.531086660314
-0.524704228806
-0.520607822938
-0.51795199153
-0.516220481274
-0.515327556178
-0.515171149361
-0.515549846946
-0.516180439315
-0.516813051596
-0.51730380902
-0.517614286354
-0.517757589727
-0.517743520274
-0.51757004229
-0.517235907486
-0.516776933526
-0.516286193784
-0.515875168046
-0.515631364694
-0.515593834042
-0.515749785298
-0.516038290098
-0.516334507801
-0.516422390426
-0.515953173131
-0.514443776076
-0.511502214944
-0.507278472666
-0.502621648598
-0.498508296243
-0.495381056755
-0.49324233031
-0.49280323181
-0.495915745096
-0.503730296026
-0.512405086033
-0.512276271801
-0.494989884783
-0.465884124516
-0.449082912644
-0.468382758533
-0.520221481836
-0.579737965447
-0.629629807398
-0.668108387035
-0.698480721488
-0.722874620887
-0.740631258308
-0.750601426071
-0.755409177703
-0.757788894017
-0.758915226084
-0.759308278248
-0.758887904645
-0.757398954205
-0.754644344644
-0.750649048664
-0.745447790527
-0.737442819351
-0.727166957178
-0.71997835916
-0.708052399119
-0.622253949205
-0.459782621706
-0.939509939239
-0.710699259417
0.691418707083
-0.395855166933
-0.201414587686
-0.451869542457
-0.488893450297
-0.542840216783
-0.565019421569
-0.574027802244
-0.572770083675
-0.565902931654
-0.555847219685
-0.544510963256
-0.533719339044
-0.525519713489
-0.520653359043
-0.518049534493
-0.516390335539
-0.515243679628
-0.514631318718
-0.51468885537
-0.515314296819
-0.516178231139
-0.51699001508
-0.517590949128
-0.517939723936
-0.518056947845
-0.517960503983
-0.5176570272
-0.517165554928
-0.516555159023
-0.515938627485
-0.515424219053
-0.515079080264
-0.514918935453
-0.514908476837
-0.514952776803
-0.514863149084
-0.514325333265
-0.51290302888
-0.510155671544
-0.505975237032
-0.500918711076
-0.496044054487
-0.492162246991
-0.489441821365
-0.487830255751
-0.48804510799
-0.49140875355
-0.497369124496
-0.500285128142
-0.491575046619
-0.468809077515
-0.444670319597
-0.442946342432
-0.476934782454
-0.53458082818
-0.593245437612
-0.641290742419
-0.678901291429
-0.70895137896
-0.732098540664
-0.746339303535
-0.75336312019
-0.756813833948
-0.758548734296
-0.759337091216
-0.759497121967
-0.759029598622
-0.75777576196
-0.755481372934
-0.751752026156
-0.746865959413
-0.741322503389
-0.73639721663
-0.73557030087
-0.723058662894
-0.634625178847
-0.505411446393
-0.963060298718
-0.674921279158
0.76555481228
-0.40111762233
-0.171016377274
-0.45482590684
-0.483306605803
-0.542378644275
-0.563113248734
-0.57150123151
-0.569182130264
-0.561436507414
-0.550511450373
-0.538412921411
-0.527593015917
-0.520702303638
-0.517693486479
-0.516458067527
-0.515535531945
-0.514582283554
-0.513989810635
-0.514233706998
-0.515150620252
-0.516262096961
-0.517201232857
-0.517812788352
-0.518079808852
-0.518057709879
-0.517802085713
-0.517350895689
-0.516751945969
-0.516086496819
-0.515450678754
-0.514919165552
-0.514526477038
-0.514263562
-0.514066613165
-0.513790414766
-0.513175616254
-0.51184853871
-0.509390724289
-0.50554108966
-0.500519658073
-0.495153539287
-0.49048628306
-0.487078668108
-0.484899417088
-0.483884342451
-0.484605360941
-0.487523206018
-0.490434105713
-0.487048667056
-0.471673789887
-0.448074960219
-0.433123783638
-0.446422654475
-0.491540587345
-0.552045235032
-0.609017633471
-0.655163220127
-0.691760406925
-0.720778733731
-0.740663023726
-0.751041601993
-0.756007027328
-0.758413046739
-0.759493302159
-0.759842385888
-0.759667555297
-0.759004255758
-0.757809895425
-0.75587812499
-0.752718446783
-0.748024982012
-0.74452685405
-0.74712852767
-0.756086221446
-0.752586151283
-0.699652671299
-0.683997220474
-1.15189265125
-0.639768488281
0.826126970531
-0.404636156263
-0.144686670942
-0.457920635807
-0.477966460637
-0.542121665392
-0.56114620514
-0.569013224066
-0.565651958687
-0.557075550731
-0.545279852008
-0.532533066136
-0.522226389509
-0.51725300785
-0.516020073513
-0.515614864861
-0.514963842558
-0.513853423139
-0.513303931068
-0.513903385747
-0.515151801116
-0.516399154676
-0.517296899056
-0.51775274288
-0.517817511864
-0.517607403457
-0.517218690305
-0.516703603608
-0.516110347801
-0.5154994207
-0.514927910695
-0.514429484728
-0.514009463211
-0.513634201709
-0.513204015522
-0.512520810304
-0.511281696748
-0.50911882462
-0.505719932663
-0.501057873538
-0.495621690037
-0.490349250712
-0.486135201263
-0.483291213132
-0.481654898166
-0.481132759854
-0.481974540262
-0.4836200747
-0.482661889426
-0.473472118853
-0.454336056776
-0.434180413801
-0.430784894031
-0.457554984717
-0.510401598577
-0.571640047812
-0.626427355632
-0.670658801649
-0.705962887058
-0.732468455288
-0.747883919596
-0.755266957829
-0.758674460242
-0.760094893011
-0.76043105296
-0.76017928082
-0.759521202162
-0.758470139602
-0.757000737628
-0.754913354764
-0.751725886223
-0.747022567517
-0.743392322439
-0.748526050342
-0.760589344644
-0.766660488051
-0.786624068641
-0.970233554387
-1.52377997886
-0.606962158423
0.874988601492
-0.405711245399
-0.12257297284
-0.460357626862
-0.473087451145
-0.541984486335
-0.559247372554
-0.566684253333
-0.562329264676
-0.552988960156
-0.54039669241
-0.527333861327
-0.518226863112
-0.515425711064
-0.515386395702
-0.515137078122
-0.514395993404
-0.51315968326
-0.512994643182
-0.513958981389
-0.515325016517
-0.516495783583
-0.51719444987
-0.517396937339
-0.517224937129
-0.516854630666
-0.51640445623
-0.515914211314
-0.515407631646
-0.514903287028
-0.514417067784
-0.513952145681
-0.51349278044
-0.512978758396
-0.512269079402
-0.511127054333
-0.509245983828
-0.506317489543
-0.502184005034
-0.497043265857
-0.491557070651
-0.486644903341
-0.482990223814
-0.480689883607
-0.479493854822
-0.479223937966
-0.479664480666
-0.479289077948
-0.474201422295
-0.460579712455
-0.44093223392
-0.427552818366
-0.436453851192
-0.474395936596
-0.532078521136
-0.592613368403
-0.644981958914
-0.687299377861
-0.720665524539
-0.742887857163
-0.754151379659
-0.759236016989
-0.761261869817
-0.761660026788
-0.761150675238
-0.760153068228
-0.758814798105
-0.757097948727
-0.75490139654
-0.75193688884
-0.747663168437
-0.741453659911
-0.73418286417
-0.731039868694
-0.728919636227
-0.726742280625
-0.789397788562
-1.02514161883
-1.3725541782
-0.578113720426
0.913895495469
-0.403948759713
-0.104408583123
-0.461481524682
-0.468795713762
-0.541853957132
-0.557518498283
-0.564592547249
-0.559340758583
-0.549332227911
-0.536132868419
-0.52326335582
-0.51587354347
-0.514940097763
-0.515459622484
-0.5150545142
-0.514147875937
-0.513151046723
-0.513318078015
-0.514361547834
-0.515596651333
-0.516527488042
-0.516925176325
-0.516823388191
-0.516414781542
-0.515963974744
-0.515536218989
-0.515120061354
-0.514728186297
-0.514324835204
-0.513900452648
-0.513442134501
-0.5129177868
-0.512235777687
-0.511216746377
-0.509611739501
-0.507142976311
-0.5035973211
-0.498983596524
-0.493676701671
-0.488412514684
-0.484004679907
-0.480911242231
-0.479058227187
-0.478127120057
-0.477785266483
-0.477281222678
-0.474376412074
-0.465495715703
-0.449386823853
-0.432292378026
-0.427865528119
-0.448590965572
-0.49519955305
-0.555433885755
-0.614360204826
-0.664285757365
-0.704587853598
-0.734593570291
-0.751732923228
-0.759709857775
-0.762909509016
-0.763614729372
-0.762949710397
-0.761529160424
-0.759684218583
-0.757499113855
-0.754856659525
-0.751518129203
-0.747040711402
-0.7407343472
-0.731534123387
-0.71799317773
-0.699438602404
-0.673229492556
-0.64998945047
-0.675222598943
-0.549199808964
0.52279636608
-0.554260141443
0.944328268697
-0.399216813424
-0.0897653128218
-0.460903358649
-0.465153983396
-0.541614145041
-0.556028958305
-0.562790931064
-0.556793064975
-0.546250324455
-0.532740266237
-0.520549941888
-0.51495769941
-0.515331242985
-0.516016749837
-0.515529136189
-0.514581303335
-0.513702686383
-0.513862010182
-0.514799625169
-0.515844209983
-0.516540944463
-0.516702014028
-0.516389082085
-0.515790401888
-0.515161573171
-0.514689450976
-0.514360493813
-0.51408661789
-0.513748948469
-0.513344391771
-0.512857354195
-0.512238453218
-0.511359808898
-0.510023364067
-0.507991689449
-0.505038911857
-0.501064290001
-0.496224541928
-0.491007228553
-0.486140207608
-0.482282968536
-0.479682978126
-0.478136999506
-0.47725706894
-0.476493070904
-0.474582253622
-0.468974134518
-0.457157751952
-0.440747548155
-0.428738180992
-0.434329093019
-0.465633065795
-0.518534012945
-0.57962253786
-0.636443030942
-0.68396228665
-0.72168741486
-0.746745143057
-0.759352779605
-0.764698320707
-0.766218909447
-0.765649004254
-0.763928730534
-0.761588879343
-0.758855546663
-0.755732107543
-0.752007640037
-0.747299487585
-0.741012089481
-0.732300635912
-0.719664537553
-0.69982087763
-0.668264413475
-0.62583708569
-0.582617164651
-0.524005175207
-0.203258028675
0.693436414947
-0.535769224627
0.967459094849
-0.391716679705
-0.0782854136052
-0.458553784219
-0.46219157156
-0.541169856436
-0.554810661569
-0.56131391914
-0.554777092728
-0.543880345285
-0.530369739395
-0.519105011646
-0.515065554373
-0.516318388026
-0.517061403077
-0.516476086421
-0.515456627346
-0.51459052236
-0.514716650111
-0.51550562283
-0.516320298586
-0.516778913575
-0.51674240418
-0.516276410007
-0.515536038218
-0.514736310595
-0.514116274765
-0.513778024404
-0.513517921648
-0.513175826794
-0.512740193262
-0.512186052903
-0.51143562679
-0.510337888723
-0.508698618911
-0.506304189302
-0.50299762353
-0.498788105106
-0.493943465258
-0.489000585962
-0.484620980665
-0.481291676542
-0.479078493297
-0.477681858768
-0.476630248446
-0.475118990513
-0.471496234984
-0.463371204602
-0.449852614148
-0.435279361594
-0.430189006743
-0.445940171709
-0.486173259721
-0.543291525074
-0.604041921186
-0.658571392174
-0.70367470216
-0.737522274328
-0.757006310016
-0.76596806921
-0.769138665979
-0.769136756591
-0.767364301463
-0.764639881797
-0.761410211811
-0.757791572353
-0.753702503697
-0.748840155442
-0.74270455423
-0.73457241458
-0.723432634801
-0.707432840034
-0.682529585121
-0.643152407013