/*--------------------------------*- C++ -*----------------------------------*\
| =========                 |                                                 |
| \\      /  F ield         | OpenFOAM: The Open Source CFD Toolbox           |
|  \\    /   O peration     | Version:  v1806                                 |
|   \\  /    A nd           | Web:      www.OpenFOAM.com                      |
|    \\/     M anipulation  |                                                 |
\*---------------------------------------------------------------------------*/
FoamFile
{
    version     2.0;
    format      ascii;
    class       volScalarField;
    location    "100";
    object      pa;
}
// * * * * * * * * * * * * * * * * * * * * * * * * * * * * * * * * * * * * * //

dimensions      [0 2 -2 0 0 0 0];


internalField   nonuniform List<scalar> 
6400
(
-0.773185478403
-0.77584646243
-0.785238102268
-0.798239875735
-0.807514184118
-0.810249971614
-0.808562776473
-0.799805329446
-0.787479922052
-0.775023284869
-0.764415902768
-0.756313651065
-0.750766377603
-0.747673804292
-0.746953556369
-0.748507459988
-0.752149082668
-0.757568791644
-0.764379954995
-0.772181069935
-0.780614292996
-0.789383947333
-0.798260970649
-0.807068881538
-0.815676157751
-0.8239839088
-0.831921325469
-0.83943610349
-0.846488250111
-0.853036881277
-0.859029689259
-0.864450609203
-0.869634930292
-0.876088797374
-0.884125386292
-0.893105469028
-0.902109778662
-0.91051861607
-0.918056069214
-0.92465728283
-0.930329104157
-0.935087014825
-0.938943667772
-0.941924652127
-0.944074918144
-0.945462135695
-0.946168286079
-0.946285591159
-0.945907299053
-0.945125149994
-0.944022397288
-0.942673497437
-0.94113970555
-0.939471415172
-0.937706036013
-0.935871992224
-0.933987308849
-0.932063918411
-0.930106145321
-0.928115221946
-0.926088044431
-0.924022358829
-0.92191613279
-0.91977324161
-0.917602937299
-0.915424891694
-0.913267485399
-0.911170381511
-0.909179874464
-0.907347165928
-0.905717577429
-0.904323755122
-0.903157034509
-0.902168063541
-0.901173447556
-0.900034795315
-0.898299168815
-0.896598313784
-0.894050505301
-0.896421626116
-0.788511767574
-0.79999460794
-0.809985532478
-0.815808631843
-0.816942485486
-0.808332529499
-0.77773535427
-0.734021390044
-0.679742844682
-0.615526853352
-0.543320678607
-0.465681619509
-0.384917327309
-0.302989166058
-0.22164858072
-0.142462512883
-0.0667610420552
0.00442615127654
0.0703589125597
0.130551032932
0.184701319487
0.232656601715
0.274367295474
0.309875571242
0.339286145145
0.362761490458
0.380498185114
0.392727495878
0.399699057228
0.401688937316
0.39901327423
0.39222504287
0.382717971211
0.372741609905
0.360951754604
0.345863014022
0.32717839958
0.305214836428
0.280383343564
0.253055735877
0.223579735704
0.192304206284
0.159590517983
0.125796397351
0.0912654875654
0.0563098931506
0.0212108916259
-0.0137895400697
-0.0484824854254
-0.0826985815071
-0.116300046406
-0.149185293413
-0.18127940763
-0.212537577197
-0.242935631662
-0.272473374897
-0.301165751556
-0.329045970028
-0.356157174603
-0.382555406855
-0.408302151813
-0.433467654536
-0.458124845582
-0.48235338066
-0.50623516245
-0.529859105381
-0.553318327702
-0.576715463266
-0.600161181074
-0.623779154277
-0.647702437489
-0.67207512384
-0.697027822963
-0.722682993529
-0.749017356073
-0.775995928182
-0.802731233685
-0.828997260697
-0.848670819832
-0.869335342984
-0.804417936501
-0.810359672228
-0.809685827049
-0.805226538397
-0.797012708291
-0.784035573147
-0.762221095264
-0.731568874441
-0.69321118046
-0.648844257517
-0.60058684732
-0.550686755441
-0.501061782142
-0.453183900434
-0.408170344593
-0.366866457341
-0.329864071069
-0.297505753073
-0.269904345578
-0.246994166509
-0.228585318269
-0.214417613399
-0.204193563943
-0.197605809932
-0.194348424716
-0.194129814277
-0.196674193288
-0.201726508174
-0.209049339049
-0.218426614729
-0.229709076507
-0.242986663983
-0.258998615515
-0.276622253487
-0.293891759206
-0.310295568955
-0.326185301887
-0.34183337108
-0.357295253165
-0.372541020394
-0.387543425166
-0.402296443512
-0.41680772926
-0.431089396511
-0.445157769101
-0.459032101647
-0.472736213633
-0.486294843906
-0.499734811524
-0.513081689776
-0.526361723768
-0.539597869596
-0.552810959493
-0.566015029937
-0.579218675365
-0.592420870869
-0.605613111071
-0.618775905985
-0.631881739665
-0.644892612926
-0.657764423271
-0.670446250493
-0.682886415437
-0.695033233332
-0.70684171084
-0.718274319195
-0.7293064731
-0.739925930391
-0.750135792792
-0.759953600683
-0.769411913376
-0.778566300713
-0.787487995956
-0.796325810427
-0.805185427405
-0.814478867102
-0.82360150114
-0.833791367438
-0.835944662984
-0.854014565086
-0.827053017498
-0.815415156051
-0.803839584041
-0.804407629839
-0.79565749885
-0.775095932502
-0.746785911634
-0.711790457689
-0.670915556882
-0.625854496495
-0.578350427287
-0.529892334105
-0.481704373944
-0.43474450072
-0.389725642306
-0.347152960516
-0.307360208228
-0.270528155978
-0.236709910997
-0.205858564089
-0.177868025622
-0.152603409157
-0.129929943144
-0.109723904128
-0.0918830414938
-0.0763238370008
-0.0629830093982
-0.051810526865
-0.0427679592251
-0.0358223853505
-0.030906619944
-0.0278771977049
-0.0265088938976
-0.0283018002686
-0.0331933018166
-0.0405821377361
-0.0502340284119
-0.062047379846
-0.0758264093667
-0.0912859320212
-0.108124729546
-0.126070573818
-0.144887592888
-0.164372399847
-0.184347999162
-0.204665140211
-0.22520131938
-0.245863947638
-0.266587807154
-0.287336241248
-0.308095698673
-0.328874326724
-0.349694118257
-0.370588440467
-0.391593918929
-0.412748549114
-0.434084188889
-0.455625376387
-0.477382461444
-0.499351348783
-0.521508054698
-0.54381044509
-0.566195530198
-0.588584135952
-0.610881398879
-0.632983701742
-0.654780548885
-0.676160485438
-0.697009535191
-0.717211661738
-0.736636259922
-0.755136289939
-0.772507224694
-0.788544286535
-0.802834704996
-0.815330810241
-0.824546065768
-0.832566019608
-0.826176137102
-0.849067777139
-0.87785428331
-0.814794783551
-0.809363017973
-0.813362381686
-0.785059949974
-0.745554873136
-0.70793577839
-0.671055124352
-0.633264650152
-0.594981420753
-0.556953583374
-0.519696373513
-0.483644496295
-0.449206835178
-0.416720314326
-0.386428398152
-0.358487298191
-0.332980302372
-0.309926484406
-0.289296495891
-0.271028592112
-0.255049478798
-0.241286421169
-0.22967734468
-0.220170764558
-0.212726060246
-0.207308218434
-0.203885607443
-0.202429009209
-0.202910251664
-0.205326070824
-0.209629362858
-0.21528533612
-0.221730638478
-0.228816656879
-0.236393381339
-0.244425164729
-0.252981041439
-0.262125292473
-0.271872704955
-0.282206653229
-0.293103865408
-0.304542490454
-0.316496139784
-0.328928211562
-0.341789688223
-0.355023880925
-0.368571635654
-0.382378445136
-0.396397552719
-0.410593263172
-0.424940022083
-0.439422975657
-0.454035386803
-0.468778564937
-0.483658891976
-0.49868752672
-0.513877123989
-0.529241321845
-0.544791375817
-0.560535651319
-0.576476512619
-0.592610071468
-0.608923756276
-0.625396698466
-0.641998491259
-0.658690380554
-0.67542485398
-0.692145451113
-0.708785216154
-0.725256504335
-0.741448998011
-0.757177257934
-0.772242110935
-0.786131247004
-0.79877758075
-0.808105275252
-0.817323545764
-0.807431196259
-0.843382687383
-0.943039283219
-0.764507605347
-0.790739068062
-0.79449286007
-0.743010485872
-0.693760892277
-0.658325154489
-0.628240230689
-0.599455965567
-0.571583372892
-0.54453012701
-0.518082997313
-0.492208823224
-0.467055167945
-0.442823412403
-0.41969409345
-0.397809571895
-0.377272185311
-0.358147412604
-0.340467561843
-0.324242330141
-0.309468271653
-0.296139154331
-0.284249456008
-0.273796551448
-0.264777293447
-0.257186732244
-0.251013483076
-0.246243089938
-0.24284957856
-0.24081841162
-0.240092608872
-0.240855898596
-0.243068670804
-0.246635680367
-0.251458840736
-0.257444024708
-0.264511316877
-0.27257423759
-0.281525133748
-0.291244734581
-0.301620816166
-0.312557965442
-0.32397707157
-0.335809687793
-0.347995078532
-0.360480341227
-0.373223771138
-0.386196968117
-0.399386002319
-0.412789370451
-0.426415757658
-0.440280162028
-0.4544012777
-0.468797677645
-0.483485281994
-0.498473501483
-0.513762914187
-0.529342192919
-0.545187226853
-0.561260175643
-0.577510926377
-0.593878567268
-0.610294668208
-0.626685980483
-0.642977809519
-0.659096110977
-0.674968852448
-0.690524655356
-0.705692445911
-0.720390543255
-0.734531411096
-0.747967937097
-0.760590198843
-0.771958162912
-0.782309224685
-0.789339954276
-0.798031480017
-0.782760260454
-0.834584709596
-0.991655951306
-0.64897038858
-0.738881281374
-0.74031041211
-0.676433947739
-0.634347082009
-0.612426570236
-0.595092600276
-0.578172606837
-0.561530670253
-0.544823590034
-0.527669417507
-0.510039042016
-0.492148133184
-0.474276584714
-0.45668726171
-0.439606078588
-0.423220741828
-0.407681273875
-0.393104963248
-0.379582352026
-0.36718569772
-0.355974147794
-0.345997534379
-0.337295821043
-0.329898139203
-0.323820559301
-0.319065003995
-0.31562073815
-0.313459067081
-0.312536913622
-0.312725412331
-0.313786528878
-0.315618070131
-0.31818571503
-0.321475219092
-0.325475139354
-0.330175857669
-0.335565684114
-0.341623241759
-0.348316754143
-0.355608134424
-0.363456875927
-0.371819867555
-0.38065034611
-0.389898482248
-0.399515472749
-0.409458888073
-0.419697326115
-0.430212291518
-0.440997889692
-0.452058946818
-0.463408940697
-0.475067681914
-0.487058920412
-0.499407269276
-0.512134664999
-0.525256352731
-0.538776985982
-0.552687187144
-0.566961040571
-0.581554887262
-0.59640749622
-0.611441858768
-0.626568009374
-0.641686663295
-0.656693068635
-0.671479920025
-0.685936115912
-0.69994972852
-0.713395029108
-0.726143923411
-0.738008516087
-0.748873631562
-0.758263606007
-0.766610190535
-0.771225859016
-0.778964500533
-0.75613415636
-0.824917011685
-1.04320166695
-0.485054054726
-0.66807099115
-0.670389953435
-0.609723366242
-0.586799371102
-0.582110330107
-0.577349768288
-0.570543372748
-0.562432867438
-0.55286551286
-0.541680960683
-0.529086844777
-0.515472066209
-0.501235952779
-0.486732975221
-0.47226645647
-0.458090581514
-0.444414547131
-0.431407836241
-0.419207497545
-0.40792425359
-0.397647577982
-0.388447762273
-0.380376713688
-0.373467392199
-0.367733505418
-0.363170048142
-0.359754177223
-0.35744317931
-0.356180785578
-0.35586738109
-0.356397668497
-0.357723358645
-0.359807108353
-0.362604394533
-0.366060100732
-0.370119260096
-0.374736037374
-0.379875759614
-0.385511632271
-0.391621324999
-0.398183272595
-0.405173448382
-0.412563221187
-0.420320002908
-0.42841073815
-0.436806515234
-0.445486397808
-0.454438910785
-0.46366194483
-0.473161489667
-0.482950579373
-0.493047755373
-0.503475468263
-0.514257228696
-0.52541445983
-0.536962388034
-0.548906491766
-0.561238861295
-0.573935923664
-0.586956711784
-0.60024291974
-0.61371972982
-0.627298685951
-0.640879484859
-0.654356045933
-0.667617525863
-0.680549000308
-0.693033971751
-0.704943193933
-0.716146642479
-0.726453900879
-0.735769468317
-0.743585912344
-0.750497956196
-0.753325307258
-0.760835271305
-0.729574636662
-0.81600511454
-1.09373638621
-0.27726260152
-0.590875031934
-0.597694905989
-0.552810243194
-0.553386226062
-0.563872866617
-0.568572787808
-0.568857490103
-0.566340327118
-0.561195483241
-0.553603412659
-0.54402627831
-0.533000491299
-0.52101466975
-0.508487076114
-0.495769992886
-0.483155896687
-0.470883950364
-0.459147889554
-0.448103621196
-0.437875931368
-0.428562847323
-0.420238674894
-0.412955348818
-0.406743970495
-0.40161547948
-0.397563434041
-0.394561891943
-0.39257088118
-0.391513273938
-0.391255937579
-0.391713858893
-0.39284596389
-0.394616388714
-0.396978539708
-0.399876640642
-0.403257393766
-0.407081268299
-0.411324306227
-0.415973711363
-0.421020696126
-0.426455190523
-0.432262491072
-0.438422748756
-0.444912733374
-0.451709362267
-0.458793499796
-0.466152410169
-0.473780723
-0.481680020629
-0.489858470599
-0.498330151459
-0.507114510304
-0.516234559166
-0.525714412586
-0.535575385921
-0.545832093551
-0.556488171046
-0.567533052464
-0.578939140651
-0.590660937061
-0.60263421435
-0.614778427401
-0.626998365772
-0.639186766405
-0.651231261284
-0.663016656554
-0.67442556812
-0.685345645893
-0.695659336297
-0.705265886944
-0.714013211826
-0.721871188213
-0.728353518388
-0.734249801286
-0.735934894818
-0.744166639116
-0.704256912488
-0.808335467839
-1.1417988803
-0.0302261747007
-0.518104774238
-0.528723697048
-0.507115652797
-0.529937736187
-0.551512877374
-0.562629136863
-0.567719416589
-0.568868178807
-0.566538461647
-0.561230295034
-0.553607585299
-0.54431151068
-0.533891430594
-0.52280539697
-0.511430356417
-0.500072071287
-0.488975285615
-0.478334348553
-0.468302528724
-0.458999333618
-0.450515815211
-0.442918419691
-0.436252085708
-0.430543258501
-0.425802041501
-0.422025719652
-0.419195515455
-0.417284494687
-0.416221719087
-0.415911847899
-0.416327470159
-0.417427337412
-0.419152890914
-0.42143045427
-0.424180303272
-0.427332254062
-0.430836471411
-0.43466512915
-0.438805609202
-0.443252136749
-0.447999115213
-0.453038219771
-0.458358213473
-0.463946759027
-0.469792975779
-0.475889423611
-0.482233159226
-0.488825597813
-0.495672560664
-0.502784311737
-0.510176216003
-0.517868419956
-0.525884850377
-0.53425027585
-0.542986827791
-0.552109403177
-0.561621864816
-0.571513077135
-0.581754635093
-0.592299100456
-0.603080097225
-0.614013220282
-0.624999467284
-0.63592342811
-0.646666498055
-0.657107687414
-0.667128069215
-0.67661768419
-0.685468227654
-0.693629589806
-0.701022691255
-0.707706506137
-0.713257364658
-0.718654167733
-0.719976805783
-0.729650033577
-0.681230981888
-0.802495291762
-1.18216152759
0.250542343368
-0.458746183801
-0.465654994527
-0.470393225477
-0.511171247623
-0.540050221497
-0.555678400099
-0.564339162893
-0.568177247798
-0.56790453284
-0.56429823591
-0.558183430667
-0.550284398453
-0.541197854275
-0.531406186131
-0.521293883349
-0.511162575305
-0.501246647603
-0.491726772312
-0.482741114407
-0.474393418574
-0.466759273323
-0.459891184943
-0.453823162518
-0.448575435302
-0.444157677683
-0.44057364393
-0.437817548955
-0.435882654624
-0.434719700835
-0.434273285341
-0.434549133246
-0.435518027849
-0.437117516335
-0.439265404285
-0.441873602433
-0.444862533699
-0.448171438826
-0.451759683363
-0.455601859612
-0.459680996346
-0.463984321027
-0.468501610199
-0.473225578645
-0.478152674964
-0.483283484792
-0.488622278592
-0.494175774323
-0.499952243673
-0.50596132883
-0.512215162915
-0.518729441855
-0.525524099387
-0.532622183323
-0.540047494555
-0.54782077594
-0.555955774223
-0.564455072463
-0.573307076781
-0.582483000831
-0.591936077948
-0.601600179678
-0.611390693991
-0.621209981461
-0.630939657159
-0.640455495745
-0.649630881806
-0.658360848923
-0.666549375124
-0.674089856563
-0.6810400799
-0.687436519823
-0.69343572656
-0.698714524102
-0.704311432348
-0.706540732714
-0.717448318333
-0.661205145189
-0.800099837189
-1.21118433795
0.555746553479
-0.419808430384
-0.407252732357
-0.439238352822
-0.493019070379
-0.526889148007
-0.5463183068
-0.558079277132
-0.56421093421
-0.56569759729
-0.563578068705
-0.558824839095
-0.552241645686
-0.54446513321
-0.535990912388
-0.527198079769
-0.518373272005
-0.509731124293
-0.501431162317
-0.493589653893
-0.486288682776
-0.479583022698
-0.473506650646
-0.468078764182
-0.463309969363
-0.45920683944
-0.4557775794
-0.453028925594
-0.450978026735
-0.449604829895
-0.4488926707
-0.448872180185
-0.449536115151
-0.450836668993
-0.452703125457
-0.455055651045
-0.45781627183
-0.460916470139
-0.464299661016
-0.467919513363
-0.471738122908
-0.47572578582
-0.479862354459
-0.484138272346
-0.488554267876
-0.49311928686
-0.497847124191
-0.502753117937
-0.507851924075
-0.513157453841
-0.5186840679
-0.524448354222
-0.530469733688
-0.536769903421
-0.543370256047
-0.550288930674
-0.557536514037
-0.565113364109
-0.573006295671
-0.581185702456
-0.589605895327
-0.598203072779
-0.606893897311
-0.615574546615
-0.624132625328
-0.632437302214
-0.640345885659
-0.647807210555
-0.65477014586
-0.661119488047
-0.66708070055
-0.672918891641
-0.678841230591
-0.684746664035
-0.691488316434
-0.696519611803
-0.706224218859
-0.644545203655
-0.804064867977
-1.22559756842
0.874249387165
-0.404489320604
-0.349735718353
-0.410771288932
-0.473294586544
-0.511374411921
-0.53456102718
-0.549260050174
-0.557507840533
-0.56062918083
-0.559926786702
-0.556520291301
-0.551288684507
-0.5448993163
-0.537848400131
-0.53049982383
-0.523117431917
-0.515891047788
-0.508954282951
-0.502397490161
-0.496276945142
-0.490623202697
-0.485448754106
-0.4807555344
-0.476542139283
-0.472808921418
-0.469565062029
-0.466826264019
-0.464628718279
-0.462975842604
-0.461877050507
-0.461384386489
-0.461525597741
-0.462289201029
-0.463638632855
-0.465521987172
-0.467877252926
-0.470636426627
-0.473729265669
-0.477086589934
-0.480644523328
-0.484349866778
-0.488165029144
-0.492070521167
-0.496064011842
-0.500156269643
-0.504365600074
-0.50871253344
-0.513216707071
-0.517896030138
-0.522767869249
-0.527850230459
-0.533162542602
-0.538724739745
-0.544555396629
-0.55066898965
-0.557072327891
-0.563762805281
-0.57072486765
-0.577929822378
-0.585330187494
-0.592863704243
-0.600451555407
-0.607957667402
-0.615300538125
-0.622330955052
-0.628839827052
-0.634871136336
-0.640505703657
-0.645760259102
-0.65104366052
-0.656824558743
-0.663445650161
-0.671057001098
-0.680252337985
-0.689465145673
-0.694459583684
-0.636301217796
-0.812983389686
-1.22346305877
1.19402853168
-0.412428690568
-0.288703697919
-0.383661025155
-0.451353414648
-0.49388688271
-0.520925672202
-0.538436070894
-0.548675980696
-0.553366955391
-0.554079303314
-0.552073108883
-0.548291384156
-0.543416300915
-0.537932028473
-0.532177535055
-0.526388210003
-0.520724062039
-0.515289035524
-0.510143872205
-0.505317033144
-0.500814242629
-0.496627847937
-0.492744781794
-0.489153796108
-0.485850126316
-0.482842271149
-0.480149654328
-0.477820015433
-0.475869142337
-0.47431589421
-0.473232340316
-0.472687199126
-0.472717627045
-0.473335321619
-0.474531260704
-0.476273534829
-0.478506921574
-0.481156738925
-0.484136734512
-0.487359219876
-0.490745970342
-0.494237125105
-0.49779591843
-0.501408269247
-0.505078261679
-0.508821447667
-0.512658670952
-0.516611768625
-0.52070195566
-0.524949608872
-0.529374760161
-0.533996853192
-0.538833961172
-0.543901406198
-0.549209824004
-0.554761188437
-0.560551291481
-0.566560248385
-0.572761372424
-0.579098095724
-0.58550544527
-0.591929559928
-0.59811789199
-0.603980454352
-0.609438254023
-0.614226612624
-0.618453431405
-0.622409957223
-0.62651272899
-0.631446157956
-0.637821846909
-0.646090503772
-0.65654841617
-0.669587426822
-0.683079110065
-0.68314183283
-0.641068539333
-0.823506142448
-1.2038255616
1.50373977913
-0.439992452335
-0.220453327622
-0.358074036394
-0.427305343536
-0.475122289681
-0.505950569523
-0.526105660023
-0.538220322673
-0.544443825573
-0.546607406255
-0.546095541084
-0.543893772726
-0.540680412188
-0.536912715725
-0.532895565229
-0.528828438185
-0.524836209507
-0.52098854714
-0.517314846482
-0.513816823652
-0.510480287627
-0.507284917645
-0.504211649116
-0.50124789934
-0.498389874168
-0.495647470222
-0.493041937758
-0.490620319969
-0.488400347073
-0.486397829957
-0.484700822932
-0.483415276912
-0.482624943652
-0.482391298748
-0.482753426319
-0.483719582376
-0.485260140754
-0.487309819763
-0.48977741165
-0.492560108529
-0.495558420083
-0.498688922774
-0.50189190822
-0.505133335098
-0.508401620754
-0.511701870366
-0.515049519636
-0.518465476632
-0.521972636547
-0.525594249182
-0.529352068003
-0.533265735658
-0.537351472434
-0.541620943475
-0.546081400538
-0.550730060543
-0.555563342056
-0.56054388816
-0.565662502441
-0.570840278031
-0.57593318508
-0.58088999278
-0.585430229517
-0.589326578035
-0.592521008024
-0.594922158444
-0.596816600204
-0.598765099955
-0.601632199261
-0.606398836204
-0.613834995913
-0.624422172298
-0.63850439603
-0.656431263371
-0.674582754911
-0.67585373147
-0.661712752987
-0.831248219715
-1.16691363472
1.79362550586
-0.481313379334
-0.142999342942
-0.335187302039
-0.401403557824
-0.455751738841
-0.490034505738
-0.512650173196
-0.526529569599
-0.53427313681
-0.53795598369
-0.539058064957
-0.538581087028
-0.537176860202
-0.535260528335
-0.533091084825
-0.530823645679
-0.528541135484
-0.526276135735
-0.52402818217
-0.521779380379
-0.51950706619
-0.517192782759
-0.514826607374
-0.512408303679
-0.509945666067
-0.507455356814
-0.504958970935
-0.502495286504
-0.500074152349
-0.497701338823
-0.495474118965
-0.493520492091
-0.491955689
-0.49087947576
-0.490374894963
-0.490493793934
-0.491242960094
-0.492581148633
-0.494427776429
-0.496677631738
-0.499217897068
-0.501943545265
-0.504768864737
-0.507633240913
-0.510501776316
-0.513361909339
-0.516218453976
-0.519087802313
-0.521992804372
-0.524958299634
-0.528007851321
-0.531161556617
-0.534432433921
-0.537832234355
-0.541366020174
-0.545014258535
-0.548793781027
-0.552631621364
-0.556452780088
-0.560196727599
-0.563656099974
-0.566652104167
-0.56890709694
-0.570138541082
-0.570246448923
-0.569372885354
-0.568126651293
-0.567492754755
-0.568768628123
-0.573197856159
-0.581686641001
-0.594796118138
-0.613255571253
-0.637906467348
-0.664221820068
-0.677696537348
-0.69571391889
-0.829990753753
-1.11376128763
2.05618879628
-0.529380508626
-0.0564097673505
-0.316415416369
-0.373715899946
-0.436340711654
-0.473431104389
-0.49836518472
-0.513910414137
-0.523189458374
-0.528483928497
-0.531333767071
-0.532725705125
-0.533261674468
-0.533296882305
-0.53303156437
-0.532566308731
-0.531936940942
-0.531139579534
-0.530151979223
-0.528950877993
-0.527523836786
-0.525874222322
-0.524020071154
-0.521989079211
-0.519812001053
-0.517518458451
-0.515132950115
-0.512677491917
-0.510150384264
-0.507546895616
-0.504962004826
-0.502522910588
-0.50035148335
-0.498566046915
-0.497281144371
-0.496589531439
-0.496540282839
-0.497128959851
-0.498300792938
-0.499962507326
-0.501997957162
-0.504285284272
-0.506712207055
-0.509187578386
-0.511647356393
-0.514055825621
-0.51640238463
-0.518695526904
-0.520955545594
-0.523208198231
-0.525477447061
-0.527786123029
-0.53014485933
-0.532564286983
-0.535047768627
-0.537568560021
-0.540073135256
-0.542512129689
-0.544780546524
-0.546746272019
-0.548140811948
-0.548595394874
-0.547689953591
-0.545107666992
-0.540861961021
-0.535443918819
-0.52990951444
-0.525740498069
-0.524639783439
-0.528159962397
-0.537556495904
-0.554005981553
-0.579231520723
-0.614417718374
-0.654079527434
-0.687616321173
-0.730995245213
-0.817833090159
-1.0461958034
2.28637670945
-0.577164602176
0.0373361714389
-0.3027480151
-0.344137970004
-0.41738507583
-0.456288855207
-0.483499356461
-0.500617696822
-0.511475764472
-0.518491129752
-0.523224578097
-0.526616024279
-0.529191892474
-0.531229210415
-0.532855176073
-0.534107301814
-0.534972780262
-0.535418996718
-0.535418127216
-0.534964024187
-0.534079010816
-0.532811092253
-0.531224405781
-0.529387150062
-0.527360701207
-0.52519179914
-0.52290822032
-0.520516552827
-0.517998017972
-0.515340812521
-0.512623953761
-0.509948796968
-0.507417543691
-0.505144226952
-0.503258500963
-0.501885303277
-0.501116528913
-0.500992336394
-0.501496386457
-0.502560303204
-0.504075291346
-0.50590878428
-0.507923858127
-0.50999708953
-0.512031898477
-0.513964972123
-0.515766414656
-0.51743366324
-0.518981815275
-0.520433914704
-0.521818324414
-0.523166579162
-0.524461467809
-0.525758615536
-0.526975894943
-0.52810306009
-0.529127689257
-0.529967548818
-0.530471372554
-0.530302493457
-0.528945675871
-0.525794337338
-0.520319743961
-0.512301161451
-0.502083008679
-0.49067274124
-0.47970261232
-0.47123363088
-0.46750500075
-0.470659600627
-0.482657999206
-0.505398404204
-0.54060273703
-0.58750515401
-0.639201471719
-0.689111374944
-0.742885111252
-0.791753807481
-0.966461710914
2.48151394255
-0.618437342327
0.134883632585
-0.294319782897
-0.312584664234
-0.399324456864
-0.438684260991
-0.468283673957
-0.486872975078
-0.499383282058
-0.508234635867
-0.51497805578
-0.520472605012
-0.525144050731
-0.529172715837
-0.532600446556
-0.535396928337
-0.537506615304
-0.538884919268
-0.539524130743
-0.539464842284
-0.538792069739
-0.537619698631
-0.536070331934
-0.534256589844
-0.532269200397
-0.530169104098
-0.527989309257
-0.525720702524
-0.523327965025
-0.520799467885
-0.518182768925
-0.515532883526
-0.512910876654
-0.510406536872
-0.508147079644
-0.506277315663
-0.504926591476
-0.50418220941
-0.504074089001
-0.504569202249
-0.505575421443
-0.506956250293
-0.508553105999
-0.510210428635
-0.511796839087
-0.513218274361
-0.514421545941
-0.515389133807
-0.516129404465
-0.516662715753
-0.517010345856
-0.517236583266
-0.517262979173
-0.517140065019
-0.516883695142
-0.516492678793
-0.515975184835
-0.515097158582
-0.513443783741
-0.510350716636
-0.505002862709
-0.496622602526
-0.484752739793
-0.469530973122
-0.451919479081
-0.433700479012
-0.417337285268
-0.405734112465
-0.401964643963
-0.4089363879
-0.428992502438
-0.463473397756
-0.511892971561
-0.569985524485
-0.629662859706
-0.6857841844
-0.738118404935
-0.776268052598
-0.877220584729
2.64109321309
-0.648341336424
0.232101299958
-0.29028832284
-0.279240263676
-0.382499043715
-0.420662218459
-0.452945259784
-0.472874407106
-0.48713923931
-0.497934502448
-0.506792261173
-0.51445462794
-0.521222698569
-0.527164606793
-0.532228799544
-0.536320158856
-0.539356071725
-0.541307286278
-0.542220319513
-0.542216479239
-0.54146989907
-0.540174667255
-0.538512857548
-0.53663270128
-0.53464063387
-0.532601158894
-0.530544394093
-0.528455714644
-0.526291771335
-0.524039451789
-0.521709349487
-0.519301447053
-0.516823566415
-0.514326312966
-0.511918279713
-0.509749326339
-0.507976746958
-0.506732026941
-0.506094662031
-0.506073425881
-0.506600192988
-0.507540089227
-0.508716194769
-0.509941104394
-0.511046616535
-0.511904053947
-0.512432990041
-0.512598433138
-0.512406008866
-0.511840824573
-0.510958242137
-0.509759720286
-0.508254382279
-0.50656498214
-0.5048135009
-0.502958447546
-0.500792115661
-0.497766698513
-0.493084799401
-0.485726883555
-0.474675792907
-0.459225021284
-0.439348682705
-0.415984588037
-0.39118383425
-0.367992976093
-0.350200559177
-0.341973703785
-0.347380349562
-0.369654037497
-0.410153371179
-0.46737187757
-0.536326255071
-0.6082081696
-0.671622762785
-0.717949150393
-0.746118138994
-0.762829482647
-0.781217385512
2.76637470451
-0.663688080852
0.324735605658
-0.289007570964
-0.244708744137
-0.367065123914
-0.402284437243
-0.437704555823
-0.458800819068
-0.474949948912
-0.487774499159
-0.498818323783
-0.508663783293
-0.517468684287
-0.525178504903
-0.531648234802
-0.536731459468
-0.540345876621
-0.542514598515
-0.543377840964
-0.543170121573
-0.542172932748
-0.540661181064
-0.538862145383
-0.536936770606
-0.534983618602
-0.533053305978
-0.531166035173
-0.529307174288
-0.527436679123
-0.525537158915
-0.523590793482
-0.521550573747
-0.51937123118
-0.517055833309
-0.514680031309
-0.512383024573
-0.510337136406
-0.508711082397
-0.507632587488
-0.507155092189
-0.507238650988
-0.507753750285
-0.508506254451
-0.509276011879
-0.509854587007
-0.510074209481
-0.509823877521
-0.509035656162
-0.507728204889
-0.505807962478
-0.503370672882
-0.500518928127
-0.49738998061
-0.494228226357
-0.491070413853
-0.487650787575
-0.483387717099
-0.477313658496
-0.468241281727
-0.454932244834
-0.436471597077
-0.412690104745
-0.384575578742
-0.354503497951
-0.326234684465
-0.304587739868
-0.294889278489
-0.302189224072
-0.330218357711
-0.380008943385
-0.448411613659
-0.527486331548
-0.60601084397
-0.672747649527
-0.717872633259
-0.730070464036
-0.693409156901
-0.597616576691
-0.681164664863
2.85994953827
-0.663028254254
0.408889728693
-0.288343798028
-0.21003048953
-0.352923232029
-0.383682851368
-0.422758430179
-0.444818034458
-0.463000005206
-0.477903005409
-0.491163595135
-0.503152019665
-0.513872667313
-0.523145522349
-0.530742371951
-0.53649165037
-0.540350024796
-0.542437114295
-0.543025824875
-0.542487499022
-0.541212578697
-0.539538053358
-0.537704948045
-0.5358541378
-0.534050414332
-0.532315656686
-0.530655698432
-0.529060969736
-0.527498199333
-0.525948259761
-0.524384089058
-0.522733349176
-0.520908981647
-0.518865072903
-0.516633707852
-0.514328490551
-0.512122864957
-0.510213170152
-0.508770984936
-0.507893498693
-0.507569481516
-0.507674897628
-0.507997181409
-0.508278626896
-0.508265316526
-0.50774315016
-0.506559717306
-0.504610960635
-0.501865503046
-0.498303536562
-0.494097881344
-0.48955672819
-0.4849377831
-0.480422371888
-0.475783212306
-0.470366682846
-0.463124173886
-0.452682027926
-0.437633607732
-0.416884261699
-0.390163819241
-0.358511070128
-0.324620098992
-0.292871275358
-0.268974228988
-0.259157994034
-0.268996097382
-0.301950600556
-0.35785235509
-0.431630946052
-0.512958991536
-0.58802056684
-0.64440391628
-0.676732552857
-0.683734949628
-0.651388632447
-0.5496131877
-0.390699101405
-0.579657951826
2.92522342483
-0.64646419651
0.481394036587
-0.286029183741
-0.176527749972
-0.339694026059
-0.365092917907
-0.408255003063
-0.431087347163
-0.451450368873
-0.468436814341
-0.483900525362
-0.497936475887
-0.510397972824
-0.520984559957
-0.529407160361
-0.535506978647
-0.539326934678
-0.541129034024
-0.54135084073
-0.540507164092
-0.539076371766
-0.537416413943
-0.535737091941
-0.53412471766
-0.532593669381
-0.531134660446
-0.52974462101
-0.528420447509
-0.527135753043
-0.525874720231
-0.5246220157
-0.523305201031
-0.521812383867
-0.520053046783
-0.518009928932
-0.515759582578
-0.513464186133
-0.511338038134
-0.509590722311
-0.508359634316
-0.507659898904
-0.507368093619
-0.507245483596
-0.506989222888
-0.506282288177
-0.504866024222
-0.502503551831
-0.499092757059
-0.494603070329
-0.48917484959
-0.483209361023
-0.47713238283
-0.471183014867
-0.465284292238
-0.458783335771
-0.45054256193
-0.43907968297
-0.422814629827
-0.400517719746
-0.371814317751
-0.337759702743
-0.301238000188
-0.267032174721
-0.241387800835
-0.231027637307
-0.241659362972
-0.276233327152
-0.333364998883
-0.406529220111
-0.484568738493
-0.553863749782
-0.602314407561
-0.624601689123
-0.624744536847
-0.606598954574