/*--------------------------------*- C++ -*----------------------------------*\
| =========                 |                                                 |
| \\      /  F ield         | OpenFOAM: The Open Source CFD Toolbox           |
|  \\    /   O peration     | Version:  v1806                                 |
|   \\  /    A nd           | Web:      www.OpenFOAM.com                      |
|    \\/     M anipulation  |                                                 |
\*---------------------------------------------------------------------------*/
FoamFile
{
    version     2.0;
    format      ascii;
    class       surfaceScalarField;
    location    "100";
    object      phi;
}
// * * * * * * * * * * * * * * * * * * * * * * * * * * * * * * * * * * * * * //

dimensions      [0 3 -1 0 0 0 0];
oriented        oriented;


internalField   nonuniform List<scalar> 
12640
(
2.20211715272e-05
-2.20215146012e-05
3.10495250016e-05
-9.02864571476e-06
3.64112027392e-05
-5.36202929282e-06
3.52094316798e-05
1.20141391507e-06
2.37641588448e-05
1.14449554411e-05
1.67638804354e-06
2.20874101611e-05
-2.93225930232e-05
3.09987548471e-05
-5.97683861794e-05
3.04456557752e-05
-8.95003145638e-05
2.97318501236e-05
-0.000118848757771
2.93483945078e-05
-0.000147628509931
2.87797300593e-05
-0.000175565523987
2.79370105894e-05
-0.000202408029875
2.68425208037e-05
-0.000227948361851
2.55403629174e-05
-0.00025202822947
2.40799135302e-05
-0.000274537360781
2.25091911217e-05
-0.000295409371883
2.08720825421e-05
-0.000314616288121
1.92069985823e-05
-0.000332162400007
1.75462020759e-05
-0.000348077924329
1.59156218582e-05
-0.000362412840334
1.43350175445e-05
-0.000375231195095
1.28184600645e-05
-0.00038660610813
1.13750189168e-05
-0.00039661562359
1.00096219422e-05
-0.000405339476325
8.72395712489e-06
-0.000412856752598
7.51737872262e-06
-0.00041924434643
6.38769232057e-06
-0.000424576011384
5.33175956077e-06
-0.000428921947135
4.34602546289e-06
-0.000432348669813
3.42680751886e-06
-0.000434919112559
2.57052283585e-06
-0.00043669234325
1.77330518145e-06
-0.000437723554342
1.03128071887e-06
-0.000438062098441
3.38607239238e-07
-0.000437750830022
-3.11210026548e-07
-0.000436833254354
-9.1752424224e-07
-0.000435360328691
-1.47287832142e-06
-0.00043338735969
-1.97292866861e-06
-0.000430968497836
-2.41882472438e-06
-0.000428154913449
-2.81355410278e-06
-0.000424993932214
-3.16095313412e-06
-0.000421528498547
-3.46541203184e-06
-0.000417796737397
-3.73174054383e-06
-0.000413831576216
-3.96514642185e-06
-0.000409660402062
-4.17115911619e-06
-0.000405304787436
-4.35560455424e-06
-0.000400780270488
-4.52450513223e-06
-0.000396096233181
-4.68402933242e-06
-0.000391255859425
-4.84036244665e-06
-0.000386256224625
-4.999626025e-06
-0.000381088492898
-5.16771799147e-06
-0.000375738270948
-5.35020940118e-06
-0.000370186074644
-5.55217730094e-06
-0.000364407939136
-5.77811652166e-06
-0.000358376103183
-6.03180937377e-06
-0.000352059783614
-6.31629227176e-06
-0.000345425957085
-6.63379109058e-06
-0.000338440158141
-6.98576271176e-06
-0.000331067196236
-7.37291772942e-06
-0.000323271787576
-7.79536436859e-06
-0.000315018967473
-8.25276879612e-06
-0.000306274258179
-8.74465915702e-06
-0.000297003437869
-9.27076453848e-06
-0.000287171893292
-9.8314913765e-06
-0.000276743413182
-1.04284224626e-05
-0.000265678364416
-1.10649944812e-05
-0.00025393118486
-1.17471213181e-05
-0.000241447195478
-1.24839344669e-05
-0.000228158762281
-1.32883743569e-05
-0.000213981080142
-1.41776267441e-05
-0.000198807512531
-1.5173509093e-05
-0.000182505019006
-1.63024409804e-05
-0.000164910331986
-1.75946370213e-05
-0.000145831588037
-1.90787042804e-05
-0.00012506650811
-2.07650438614e-05
-0.000102448277708
-2.26181999425e-05
-7.79066099638e-05
-2.45416499306e-05
-5.15199625181e-05
-2.63865765126e-05
-2.39944937813e-05
-2.75256906643e-05
-2.39944791838e-05
1.32767021977e-05
-3.52987893251e-05
2.01090575961e-05
-1.58616640923e-05
1.06836175568e-05
4.06299536319e-06
-1.30933626874e-05
2.49781193232e-05
-4.08053196889e-05
3.91567745471e-05
-6.70949255966e-05
4.83768936454e-05
-9.22096962047e-05
5.61134236498e-05
-0.000120240785973
5.84766512674e-05
-0.000149552062747
5.90430649668e-05
-0.000178911483934
5.87077680491e-05
-0.000207726795671
5.75950225665e-05
-0.00023560860512
5.58188121854e-05
-0.00026225978167
5.34937130186e-05
-0.000287454755115
5.07353616255e-05
-0.00031103008189
4.76552853572e-05
-0.000332877595673
4.43567579664e-05
-0.000352937683954
4.09322396599e-05
-0.000371192332893
3.7461722315e-05
-0.00038765789193
3.40118471209e-05
-0.000402377877364
3.06356969836e-05
-0.000415416029437
2.73732657685e-05
-0.00042684998502
2.42525134628e-05
-0.000436765777013
2.12909106819e-05
-0.000445253346419
1.84972913991e-05
-0.000452403073156
1.58737819121e-05
-0.000458303260213
1.34176634403e-05
-0.000463038614648
1.11231390527e-05
-0.000466689526214
8.98276305417e-06
-0.000469332127804
6.98871099555e-06
-0.000471038265629
5.13302991018e-06
-0.000471875323623
3.40765551717e-06
-0.000471906138612
1.80419647244e-06
-0.000471187997951
3.13204295106e-07
-0.000469789259127
-1.06006541061e-06
-0.000467793488384
-2.30692837455e-06
-0.000465276708307
-3.434248777e-06
-0.000462298032522
-4.45151317266e-06
-0.00045890494146
-5.36597436162e-06
-0.000455140269265
-6.18346659776e-06
-0.000451043739456
-6.91004788517e-06
-0.000446652207968
-7.55246369356e-06
-0.000441999330972
-8.11826112142e-06
-0.000437115209691
-8.61584867625e-06
-0.000432025905318
-9.05442936225e-06
-0.000426753103789
-9.44395323375e-06
-0.000421313720589
-9.7949706848e-06
-0.000415719696354
-1.01185252122e-05
-0.000409977756137
-1.04259542897e-05
-0.00040408938305
-1.07287317766e-05
-0.000398050777395
-1.10382153299e-05
-0.000391853051076
-1.13654378718e-05
-0.000385482422943
-1.17208170883e-05
-0.000378920653149
-1.21139349919e-05
-0.000372145471912
-1.25532705088e-05
-0.00036513122474
-1.30460363695e-05
-0.000357849482119
-1.35979989692e-05
-0.000350269818979
-1.42134246861e-05
-0.000342360501392
-1.48950351776e-05
-0.000334089259143
-1.56441212924e-05
-0.000325423858165
-1.64607121365e-05
-0.000316332625449
-1.73439555181e-05
-0.000306784628704
-1.82925971957e-05
-0.000296749655548
-1.93056873595e-05
-0.000286197705375
-2.03833805921e-05
-0.000275098109347
-2.15279667126e-05
-0.000263418025658
-2.27450174333e-05
-0.000251120462716
-2.40446326497e-05
-0.000238161682918
-2.54426548796e-05
-0.000224488059156
-2.69619472716e-05
-0.000210032281225
-2.86333474715e-05
-0.000194709387152
-3.04963548167e-05
-0.000178412520876
-3.2599257733e-05
-0.00016101007613
-3.49970447997e-05
-0.000142346746577
-3.77420043968e-05
-0.000122250214384
-4.08615603974e-05
-0.000100544860809
-4.43235387237e-05
-7.70904142403e-05
-4.79960940615e-05
-5.19728747141e-05
-5.15041740931e-05
-2.59978902746e-05
-5.35006252817e-05
-4.99925406769e-05
5.38711019906e-08
-3.53527689344e-05
-1.2922375759e-05
-2.88580601595e-06
-3.6974017985e-05
2.81144485485e-05
-5.84808649075e-05
4.648487534e-05
-8.14720742947e-05
6.21479003783e-05
-0.000106403741401
7.33084769271e-05
-0.00013126873012
8.09783284478e-05
-0.000157453786095
8.46616362974e-05
-0.000184300726857
8.58899484227e-05
-0.000211016911369
8.5423915712e-05
-0.000237045158878
8.36232486792e-05
-0.000261995149451
8.07687997489e-05
-0.000285589566428
7.70881401077e-05
-0.00030763641623
7.27822368703e-05
-0.000328012932849
6.80318381559e-05
-0.00034665437848
6.29982521155e-05
-0.000363544458608
5.78223765357e-05
-0.000378706179759
5.26235093463e-05
-0.000392192928791
4.74986675927e-05
-0.00040407992344
4.25227689154e-05
-0.000414456381532
3.77498041942e-05
-0.000423418721678
3.32149367418e-05
-0.000431065078555
2.89373517291e-05
-0.000437491161735
2.49234589758e-05
-0.000442787446681
2.11701508904e-05
-0.00044703768085
1.76679797818e-05
-0.000450318352245
1.44038913129e-05
-0.000452699164103
1.13636521891e-05
-0.000454243395067
8.53301784782e-06
-0.000455008755873
5.89846225822e-06
-0.00045504884337
3.44781330099e-06
-0.000454416531685
1.17194888221e-06
-0.000453170506304
-9.32759240168e-07
-0.000451369601419
-2.86091604626e-06
-0.000449059675657
-4.61680205672e-06
-0.000446280066454
-6.21381386682e-06
-0.000443071642178
-7.65989494616e-06
-0.000439475301639
-8.9622804961e-06
-0.000435530655465
-1.01280793196e-05
-0.000431275529819
-1.11651480468e-05
-0.000426745476314
-1.20824918642e-05
-0.000421973263511
-1.28904561369e-05
-0.000416988341654
-1.36007519298e-05
-0.00041181635407
-1.42264051569e-05
-0.000406478678744
-1.47816147983e-05
-0.000400992057667
-1.52815837683e-05
-0.000395368283859
-1.57422877114e-05
-0.000389614000306
-1.61802309737e-05
-0.000383730578921
-1.66121414795e-05
-0.000377714134214
-1.70546512606e-05
-0.00037155563604
-1.75239208908e-05
-0.000365241169615
-1.80352696826e-05
-0.000358752298949
-1.86027840155e-05
-0.000352066574847
-1.92389729281e-05
-0.000345158138073
-1.99544426396e-05
-0.000337998450031
-2.07576556429e-05
-0.000330557085168
-2.16547490657e-05
-0.000322802590862
-2.26494881188e-05
-0.000314703317496
-2.37433447852e-05
-0.000306228196114
-2.49357836512e-05
-0.000297347352835
-2.62247419218e-05
-0.000288032530956
-2.76073637908e-05
-0.000278257207415
-2.90809506428e-05
-0.000267996374599
-3.0644156427e-05
-0.00025722587701
-3.2298404161e-05
-0.000245921241343
-3.40495972739e-05
-0.000234055960691
-3.59098554498e-05
-0.000221599377997
-3.78991844006e-05
-0.000208513829661
-4.00474411746e-05
-0.000194751222041
-4.23959057742e-05
-0.000180249503822
-4.49980250922e-05
-0.000164928749978
-4.7919972236e-05
-0.000148687388745
-5.12383751391e-05
-0.000131400044529
-5.50293327237e-05
-0.000112915630425
-5.93459719302e-05
-9.30619257326e-05
-6.41772529643e-05
-7.16799397696e-05
-6.93780962303e-05
-4.8717810116e-05
-7.44662750518e-05
-2.45242239535e-05
-7.7694445552e-05
-7.45167148087e-05
-1.88487840994e-05
-1.65051232569e-05
-4.25553070422e-05
2.08202917869e-05
-6.23681876688e-05
4.79271807595e-05
-8.46768425893e-05
6.87934381103e-05
-0.000107649290796
8.51202739382e-05
-0.000131270950377
9.69300644595e-05
-0.000155075774348
0.000104783086336
-0.000179264591963
0.000108850395969
-0.000203457112706
0.000110082425511
-0.000227178661341
0.000109145434174
-0.000250041905147
0.000106486477424
-0.000271751621882
0.000102478513722
-0.000292098470262
9.74349982736e-05
-0.000310946985333
9.16307715494e-05
-0.000328223698226
8.53085804624e-05
-0.000343906393529
7.86809842091e-05
-0.000358013986098
7.19300131077e-05
-0.000370596762994
6.52063352836e-05
-0.000381727050998
5.86290094486e-05
-0.00039149063107
5.22864058329e-05
-0.000399979287313
4.6238520063e-05
-0.000407284817311
4.0520527825e-05
-0.000413494666781
3.51472634858e-05
-0.000418689131398
3.01179863177e-05
-0.000422940053193
2.54211353827e-05
-0.000426310742807
2.10387318011e-05
-0.000428856662037
1.69498717823e-05
-0.000430626897999
1.31339487661e-05
-0.000431665419906
9.57159864506e-06
-0.000432012721896
6.24582246996e-06
-0.000431707084945
3.1422318508e-06
-0.000430785768561
2.50686450438e-07
-0.000429304487946
-2.4139909893e-06
-0.000427310579605
-4.85477825713e-06
-0.000424832140162
-7.0952007912e-06
-0.000421905756122
-9.14015966814e-06
-0.000418569905311
-1.09957131294e-05
-0.000414863814126
-1.26683412097e-05
-0.000410826354497
-1.41655140908e-05
-0.000406495236759
-1.5496242595e-05
-0.000401906289655
-1.66714211296e-05
-0.00039709276213
-1.77039667827e-05
-0.000392084686771
-1.86088152008e-05
-0.000386908288188
-1.94027916565e-05
-0.000381585481894
-2.01044129174e-05
-0.000376133437747
-2.07336185418e-05
-0.000370564250987
-2.13114678091e-05
-0.000364884694405
-2.18597782538e-05
-0.000359096099047
-2.24007287729e-05
-0.000353194337857
-2.29564001311e-05
-0.000347169957929
-2.35482880991e-05
-0.000341008429871
-2.41967791459e-05
-0.000334690554643
-2.49206387072e-05
-0.000328192993531
-2.57365063193e-05
-0.000321488958179
-2.66584472574e-05
-0.000314549015382
-2.7697559883e-05
-0.000307342020471
-2.88617021544e-05
-0.000299836100446
-3.01553588097e-05
-0.000291999669044
-3.15797243507e-05
-0.000283802374112
-3.31330205953e-05
-0.00027521594811
-3.48111091376e-05
-0.000266214859373
-3.66083897585e-05
-0.000256776706656
-3.85190419609e-05
-0.000246882248467
-4.05385515218e-05
-0.000236515068986
-4.26655237022e-05
-0.00022566065861
-4.49039476409e-05
-0.000214304860443
-4.72655976592e-05
-0.000202432251337
-4.9771738497e-05
-0.000190023587069
-5.24560548638e-05
-0.000177052458722
-5.53669859504e-05
-0.000163482475564
-5.85679665133e-05
-0.000149263564948
-6.2138848204e-05
-0.000134326326525
-6.61755918688e-05
-0.00011857741791
-7.07782363548e-05
-0.000101892518761
-7.60308834125e-05
-8.41133468121e-05
-8.19564457581e-05
-6.50659422191e-05
-8.84255270234e-05
-4.4543641058e-05
-9.49887021601e-05
-2.25768603105e-05
-9.9661133469e-05
-9.7093754753e-05
-2.82179389077e-05
1.17129596895e-05
-5.33099049278e-05
4.59121378625e-05
-7.65696905283e-05
7.11868554612e-05
-9.97295405391e-05
9.1953200489e-05
-0.000122749098231
0.000108139758215
-0.000145585243853
0.000119766147612
-0.000168108726166
0.00012730651485
-0.000190362083775
0.00013110371008
-0.000212139804105
0.000131860112794
-0.000233163726692
0.000130169334773
-0.000253190747152
0.0001265134859
-0.000272028199931
0.000121315963701
-0.00028954039277
0.000114947196055
-0.000305646072484
0.000107736462853
-0.000320312488436
9.99750133387e-05
-0.000333547937693
9.19164548131e-05
-0.000345393483272
8.37755833299e-05
-0.000355914255659
7.5727135068e-05
-0.000365190784483
6.79055675345e-05
-0.000373310921599
6.04065739698e-05
-0.000380362907121
5.32905377338e-05
-0.000386430035724
4.6587689922e-05
-0.00039158705736
4.03043195174e-05
-0.000395898378152
3.44293426969e-05
-0.000399417891884
2.89406855324e-05
-0.000402189918172
2.38107954134e-05
-0.000404251081353
1.90110728596e-05
-0.000405631483683
1.45143894615e-05
-0.000406357130739
1.02972848668e-05
-0.000406453141569
6.34187342976e-06
-0.000405947881483
2.63701156891e-06
-0.000404879335204
-8.17822170914e-07
-0.000403273997718
-4.01929287251e-06
-0.000401153116549
-6.97562685652e-06
-0.000398551543117
-9.69674393818e-06
-0.000395505895643
-1.21857801991e-05
-0.000392055258038
-1.44463260958e-05
-0.000388240281874
-1.64832962784e-05
-0.000384102016249
-1.83037607848e-05
-0.000379680794704
-1.99174487284e-05
-0.00037501521199
-2.13369901993e-05
-0.000370141215395
-2.25779529404e-05
-0.000365091304631
-2.36587165982e-05
-0.000359893853611
-2.46002358652e-05
-0.000354572538206
-2.54257215641e-05
-0.000349145880075
-2.61602714527e-05
-0.000343626890608
-2.68304507606e-05
-0.000338022833725
-2.74638287768e-05
-0.000332335099627
-2.80884535682e-05
-0.000326559215914
-2.87322730186e-05
-0.000320684989577
-2.94224988667e-05
-0.000314696805926
-3.01849439773e-05
-0.00030857407611
-3.10433433456e-05
-0.000302291858927
-3.20186937407e-05
-0.000295821642681
-3.3128626403e-05
-0.000289132296401
-3.4386863986e-05
-0.000282191146963
-3.58028021107e-05
-0.000274965160681
-3.73812911607e-05
-0.000267422158104
-3.91226669347e-05
-0.000259532023944
-4.10230920802e-05
-0.000251267815006
-4.30752516423e-05
-0.000242606709011
-4.52694291768e-05
-0.000233530672601
-4.75950107947e-05
-0.000224026713793
-5.00424450586e-05
-0.000214086856177
-5.26053173398e-05
-0.000203707574245
-5.52831693974e-05
-0.000192887894391
-5.80852200097e-05
-0.000181628561933
-6.10310178785e-05
-0.000169929729076
-6.41548381449e-05
-0.000157787040055
-6.75096307502e-05
-0.000145189974719
-7.11649938141e-05
-0.000132119178685
-7.52096164415e-05
-0.000118537601494
-7.97571568202e-05
-0.000104385285206
-8.49305588911e-05
-8.95705627624e-05
-9.0845633696e-05
-7.39576716831e-05
-9.75693826972e-05
-5.73771824364e-05
-0.000105006069121
-3.95366325201e-05
-0.000112829224442
-2.02056933848e-05
-0.000118992375186
-0.000117299388867
-3.16558947591e-05
4.3368103739e-05
-5.82703523283e-05
7.25264131024e-05
-8.32511322208e-05
9.61675341435e-05
-0.000107122661654
0.000115824654244
-0.000130046325586
0.00013106336189
-0.000152156151724
0.000141875924821
-0.000173465693223
0.000148616016163
-0.000194024036488
0.000151662021233
-0.000213749589891
0.000151585641083
-0.000232503926666
0.000148923653293
-0.000250153088079
0.000144162634384
-0.000266587227939
0.000137750095478
-0.000281732130047
0.000130092093192
-0.000295552401677
0.000121556732099
-0.000308050479989
0.000112473090474
-0.000319262578293
0.000103128552777
-0.000329252208743
9.37652135758e-05
-0.000338101918575
8.45768446937e-05
-0.000345904143217
7.57077920316e-05
-0.000352752290958
6.72547216873e-05
-0.00035873315368
5.92714012034e-05
-0.000363921495449
5.1776033284e-05
-0.000368377121871
4.47599492628e-05
-0.000372144430988
3.81966567425e-05
-0.000375253954434
3.20502162735e-05
-0.00037772512182
2.62819719628e-05
-0.000379569621079
2.08555836789e-05
-0.000380794599078
1.57393811758e-05
-0.000381405646224
1.09083488093e-05
-0.000381409852424
6.34609767636e-06
-0.00038082003016
2.04720929568e-06
-0.000379655800274
-1.9820324886e-06
-0.000377933512224
-5.74156223882e-06
-0.000375673941883
-9.23517986509e-06
-0.00037291070251
-1.24599671069e-05
-0.000369683347674
-1.54131204017e-05
-0.000366035766005
-1.80938946035e-05
-0.000362014400019
-2.05046508452e-05
-0.000357666600493
-2.26515505669e-05
-0.000353039131423
-2.45449097293e-05
-0.000348176835848
-2.61992793321e-05
-0.000343121475903
-2.76333077366e-05
-0.000337910750732
-2.88694378777e-05
-0.000332577488701
-2.99334945528e-05
-0.000327149003596
-3.08542038259e-05
-0.000321646600683
-3.166267092e-05
-0.000316085224216
-3.23918230878e-05
-0.000310473239262
-3.30758074127e-05
-0.000304812352023
-3.37493321678e-05
-0.000299097670306
-3.44469420064e-05
-0.000293317917318
-3.52022349495e-05
-0.000287455805739
-3.60470326581e-05
-0.000281488591318
-3.70105291027e-05
-0.000275388813239
-3.81184358256e-05
-0.000269125237186
-3.93921599431e-05
-0.000262663983752
-4.08480673216e-05
-0.000255969828926
-4.2496900786e-05
-0.000249007632379
-4.43434250818e-05
-0.000241743841459
-4.6386390939e-05
-0.000234148023464
-4.86188390886e-05
-0.000226194287914
-5.10289146919e-05
-0.000217862544803
-5.36010989128e-05
-0.000209139525402
-5.63179582803e-05
-0.000200019172434
-5.91627282302e-05
-0.00019050286821
-6.2121555256e-05
-0.000180599698202
-6.51862768487e-05
-0.000170322867198
-6.83619933959e-05
-0.00015969022629
-7.16636049708e-05
-0.000148722424121
-7.51225926646e-05
-0.000137436599241
-7.87954122452e-05
-0.00012584645408
-8.27551046914e-05
-0.000113962648542
-8.70933988337e-05
-0.000101778570379
-9.19412302306e-05
-8.92651797783e-05
-9.7443968024e-05
-7.63634867839e-05
-0.0001037473708
-6.2963570188e-05
-0.00011096935474
-4.89105210951e-05
-0.000119059179247
-3.39047325205e-05
-0.000127835202161
-1.75048122731e-05
-0.000135392177381
-0.0001348044189
-3.10737073845e-05
7.4442232785e-05
-5.92614003449e-05
0.000100714155061
-8.51267901274e-05
0.00012203289763
-0.000109261554567
0.000139959377891
-0.000131902365708
0.00015370413478
-0.000153263957713
0.000163237483107
-0.000173454914389
0.000168806944253
-0.000192558858167
0.000170765939491
-0.000210574834499
0.000169601594998
-0.000227457166161
0.0001658059637
-0.000243150712596
0.000159856160738
-0.000257609850855
0.00015220921301
-0.000270812369318
0.000143294590212
-0.000282766580738
0.00013351091998
-0.000293513358613
0.000123219842762
-0.000303123272671
0.000112738438618
-0.000311689330027
0.000102331240421
-0.000319316524328
9.22040065373e-05
-0.000326110104004
8.25013379104e-05
-0.000332164763321
7.3309346923e-05
-0.000337556640827
6.46632449751e-05
-0.000342339229749
5.65585901309e-05
-0.000346543197027
4.89638864609e-05
-0.000350179397649
4.18328304214e-05
-0.000353243821088
3.51146157357e-05
-0.000355723157692
2.87612883301e-05
-0.000357600317265
2.27327261671e-05
-0.000358858720783
1.69977716512e-05
-0.000359485473452
1.15350920755e-05
-0.000359473521158
6.33414123129e-06
-0.000358822982989
1.39666792251e-06
-0.000357542048626
-3.26296839518e-06
-0.000355645609467
-7.63800247814e-06
-0.000353159690352
-1.17210991069e-05
-0.000350122446735
-1.54972108162e-05
-0.000346580055022
-1.89555116719e-05
-0.000342584355995
-2.20895935309e-05
-0.000338190641223
-2.48983653575e-05
-0.000333455636894
-2.73865552089e-05
-0.000328435655182
-2.95648917907e-05
-0.000323184930238
-3.14500051596e-05
-0.000317754153027
-3.30640858038e-05
-0.000312189223158
-3.44343687393e-05
-0.000306530218372
-3.55924998834e-05
-0.00030081058028
-3.65738417552e-05
-0.000295056505107
-3.74167445826e-05
-0.000289286531185
-3.81617934199e-05
-0.000283511314624
-3.88510175742e-05
-0.00027773358689
-3.95270495222e-05
-0.000271948292073
-4.0232221743e-05
-0.000266142904368
-4.10076014665e-05
-0.00026029793797
-4.1891971368e-05
-0.000254387658869
-4.2920772733e-05
-0.000248381018501
-4.4125033214e-05
-0.000242242824142
-4.55303030117e-05
-0.000235935138027
-4.71556949517e-05
-0.000229418876157
-4.90130968552e-05
-0.000222655589424
-5.11066405457e-05
-0.000215609306066
-5.34325981998e-05
-0.000208248489447
-5.59795770026e-05
-0.000200547840125
-5.87294839812e-05
-0.000192489861341
-6.16589983603e-05
-0.000184066452131
-6.47412901636e-05
-0.000175279412567
-6.79496936549e-05
-0.000166140319441
-7.12605780002e-05
-0.000156673662827
-7.46528684711e-05
-0.000146908187576
-7.81274070188e-05
-0.000136880332754
-8.1691405437e-05
-0.000126634041364
-8.53688318488e-05
-0.000116208625069
-8.92207851225e-05
-0.000105640484508
-9.3323208295e-05
-9.49700665204e-05
-9.77637978813e-05
-8.42196785575e-05
-0.000102691618959
-7.33879020554e-05
-0.000108275776134
-6.24446390023e-05
-0.000114690693493
-5.13091038955e-05
-0.000122104975038
-3.98346842326e-05
-0.000130533687954
-2.77712281665e-05
-0.000139898628736
-1.45307115954e-05
-0.00014863309152
-0.000149335055361
-2.99806461672e-05
0.000104422722449
-5.81453832101e-05
0.000128878893115
-8.40497783104e-05
0.000147937288625
-0.000107952565281
0.000163862150938
-0.000130073361228
0.000175824911383
-0.000150632707729
0.000183796809508
-0.000169778367676
0.000187952582124
-0.000187620128862
0.000188607677525
-0.000204207060931
0.000186188500615
-0.000219552216391
0.000181151089933
-0.000233656310082
0.000173960220512
-0.000246525484866
0.000165078349618
-0.000258185918913
0.000154954980449
-0.000268692283989
0.000144017236104
-0.000278129522333
0.000132657026503
-0.000286607488662
0.000121216345491
-0.00029424952621
0.000109973214186
-0.000301177602276
9.91320156365e-05
-0.000307497598297
8.88212651278e-05
-0.000313288170623
7.90998498036e-05
-0.00031859533692
6.99703428282e-05
-0.000323433024195
6.13962107901e-05
-0.000327788491444
5.33192903519e-05
-0.000331630422952
4.5674701982e-05
-0.00033491743783
3.84015750942e-05
-0.000337605606055
3.14494049055e-05
-0.000339654044235
2.47811174486e-05
-0.000341029244664
1.83729297957e-05
-0.000341707432109
1.22132430048e-05
-0.000341674585228
6.30126054411e-06
-0.000340924368519
6.46422319123e-07
-0.000339463726213
-4.7236374323e-06
-0.000337313447199
-9.7883052338e-06
-0.000334505542911
-1.45290252649e-05
-0.000331084411532
-1.89183613529e-05
-0.000327103542142
-2.2936398746e-05
-0.000322623022658
-2.65701283962e-05
-0.00031770729621
-2.98141061079e-05
-0.000312423018386
-3.26708453671e-05
-0.000306837013723
-3.51509079164e-05
-0.000301014353084
-3.72726754397e-05
-0.000295016594412
-3.90618531511e-05
-0.000288900206469
-4.05507633894e-05
-0.000282715204076
-4.177750751e-05
-0.000276504003457
-4.27850450573e-05
-0.000270300518298
-4.36202299001e-05
-0.00026412950393
-4.43328042252e-05
-0.000258006164054
-4.49743496801e-05
-0.000251936020494
-4.55971798689e-05
-0.000245915047823
-4.62531748764e-05
-0.000239930068749
-4.69925537311e-05
-0.000233959417437
-4.78625877059e-05
-0.000227973876456
-4.89062703161e-05
-0.000221937885683
-5.0160971692e-05
-0.000215811066152
-5.16570619852e-05
-0.000209550017664
-5.34166748688e-05
-0.000203110319797
-5.5452719524e-05
-0.0001964488177
-5.7768061869e-05
-0.000189525830809
-6.03555003949e-05
-0.000182307711704
-6.31976093393e-05
-0.000174769194739
-6.62679137091e-05
-0.000166895106111
-6.95330005402e-05
-0.000158682833691
-7.29534795175e-05
-0.000150143206564
-7.64892393996e-05
-0.000141297742859
-8.01059655003e-05
-0.000132190362351
-8.37601749839e-05
-0.000122866821759
-8.74508797023e-05
-0.000113383677331
-9.11744850652e-05
-0.000103812351758
-9.49400990115e-05
-9.42171945287e-05
-9.8815890154e-05
-8.46578884707e-05
-0.000102882473989
-7.52053852816e-05
-0.000107216279073
-6.59100521409e-05
-0.000111986959578
-5.67976963768e-05
-0.000117388177267
-4.78606721376e-05
-0.000123627798248
-3.90522798862e-05
-0.000130913461205
-3.02230283998e-05
-0.000139363034173
-2.11949999583e-05
-0.000148926914979
-1.13067223574e-05
-0.000158521209395
-0.000160642063226
-2.87343307537e-05
0.000133157463545
-5.60030568241e-05
0.000156147759032
-8.12444098165e-05
0.00017317869531
-0.000104477438073
0.000187095195483
-0.000125845846535
0.000197193319986
-0.000145530589928
0.000203481541818
-0.000163677325958
0.000206099299888
-0.000180403539703
0.000205333864411
-0.00019578505231
0.000201569979099
-0.000209871653556
0.000195237648022
-0.000222705290807
0.000186793806494
-0.000234336791249
0.000176709789473
-0.000244839531342
0.000165457651554
-0.000254315981939
0.000153493608979
-0.000262895293192
0.000141236252493
-0.000270721880386
0.000129042840591
-0.00027793777639
0.000117189012841
-0.000284663662586
0.000105857800779
-0.000290983905679
9.51414051429e-05
-0.000296939312237
8.50551530991e-05
-0.000302528472452
7.55594008911e-05
-0.000307715863411
6.65835022769e-05
-0.000312443467277
5.80467979395e-05
-0.000316642657102
4.98737998116e-05
-0.000320244132132
4.20029621664e-05
-0.0003231851268
3.43903162907e-05
-0.000325413248172
2.70091596397e-05
-0.000326888763207
1.98483707556e-05
-0.00032758538221
1.2909792932e-05
-0.000327489522825
6.20533848893e-06
-0.000326600033191
-2.43127846467e-07
-0.000324921830288
-6.4018954399e-06
-0.000322475844071
-1.22343425632e-05
-0.000319302446667
-1.77024689678e-05
-0.000315451369426
-2.27694812321e-05
-0.000310981411449
-2.74063948406e-05
-0.000305958635932
-3.15929387545e-05
-0.000300454379451
-3.53183932325e-05
-0.000294543189333
-3.85820631653e-05
-0.000288300761375
-4.13933595785e-05
-0.000281801938852
-4.37715187989e-05
-0.000275118796925
-4.57450119564e-05
-0.000268318840913
-4.73507331827e-05
-0.000261463324428
-4.86330334921e-05
-0.000254605716204
-4.96426589906e-05
-0.000247790343966
-5.04356027361e-05
-0.000241051269035
-5.10718746646e-05
-0.000234411440788
-5.16141669527e-05
-0.000227882189883
-5.21264128741e-05
-0.000221463093155
-5.26722456143e-05
-0.000215142248516
-5.33133637154e-05
-0.000208896984895
-5.41078074904e-05
-0.000202695027564
-5.51081743914e-05
-0.000196496043598
-5.63598933124e-05
-0.000190253653939
-5.78993807068e-05
-0.000183917832245
-5.97524180178e-05
-0.000177437365879
-6.19331010104e-05
-0.000170763009993
-6.44423276121e-05
-0.0001638500119
-6.72684049284e-05
-0.000156661549288
-7.03859763758e-05
-0.00014917205519
-7.37573107236e-05
-0.000141368454517
-7.73365066264e-05
-0.000133253645436
-8.10681920996e-05
-0.000124849497417
-8.48932942699e-05
-0.000116185013331
-8.87703557223e-05
-0.000107328770771
-9.26163267616e-05
-9.83449396777e-05
-9.64346238112e-05
-8.93124777684e-05
-0.000100206862945
-8.03342832313e-05
-0.000103918216865
-7.1503118386e-05
-0.000107646981206
-6.2906482225e-05
-0.000111479054977
-5.46483257e-05
-0.000115474403522
-4.68061807494e-05
-0.000119829115269
-3.9437239097e-05
-0.000124757170785
-3.25532302771e-05
-0.000130511903064
-2.61423872833e-05
-0.000137324424906
-2.00537259144e-05
-0.000145451806844
-1.41667216795e-05
-0.000154813866135
-7.82115098687e-06
-0.000164867323631
-0.000168463108761
-2.72089771028e-05
0.000160366444739
-5.32306676665e-05
0.000182169529784
-7.74115188898e-05
0.000197359600049
-9.96793667664e-05
0.00020936307024
-0.000120119734007
0.000217633692545
-0.000138866809624
0.000222228608311
-0.000156046460729
0.00022327892759
-0.000171770816772
0.000221058185284
-0.000186127204301
0.000215926318253
-0.000199188879733
0.000208299263296
-0.000211030231775
0.000198635085528
-0.000221741866001
0.000187421339132
-0.000231441225446
0.000175156914654
-0.000240273896393
0.000162326173333
-0.000248403789652
0.000149366029713
-0.000255993953187
0.000136632880583
-0.000263183578449
0.000124378508721
-0.00027006847816
0.000112742567377
-0.00027669090401
0.000101763696115
-0.000283040719799
9.14048339529e-05
-0.000289065805058
8.15843528113e-05
-0.000294687151695
7.22047180169e-05
-0.000299814050025
6.31735688816e-05
-0.000304356298964
5.44159248538e-05
-0.00030823234337
4.58788866516e-05
-0.000311373695589
3.75315519421e-05
-0.000313726832991
2.93621846809e-05
-0.000315253074431
2.13745042664e-05
-0.000315927381037
1.35839964714e-05
-0.000315737093004
6.01494991577e-06
-0.000314682097986
-1.29821728414e-06
-0.000312772475743
-8.31160612755e-06
-0.000310033751874
-1.49731479748e-05
-0.000306507273959
-2.12290225004e-05
-0.000302244866717
-2.7031957267e-05
-0.000297307904912
-3.23434197904e-05
-0.000291765662142
-3.7135238097e-05
-0.000285693427311
-4.1390679335e-05
-0.000279170526924
-4.51050084868e-05
-0.000272278359462
-4.82855668657e-05
-0.000265098484616
-5.09514272084e-05
-0.000257710791261
-5.31327336651e-05
-0.000250191717786
-5.48698285352e-05
-0.00024261250505
-5.62122623963e-05
-0.000235037454243
-5.721771887e-05
-0.000227522207857
-5.79508514851e-05
-0.000220112095858
-5.8481980895e-05
-0.000212840635483
-5.88856134229e-05
-0.000205728300977
-5.9238724127e-05
-0.000198781711426
-5.96188024483e-05
-0.000191993369322
-6.01016629946e-05
-0.000185342092614
-6.07590314631e-05
-0.000178794268831
-6.16559355666e-05
-0.000172305626155
-6.28484643683e-05
-0.000165823757198
-6.4381169438e-05
-0.000159291485708
-6.62846022104e-05
-0.000152649628024
-6.85748646681e-05
-0.000145841822133
-7.12500338846e-05
-0.000138817088294
-7.42930354115e-05
-0.000131534315652
-7.76686405517e-05
-0.000123967548797
-8.13239674763e-05
-0.000116105747975
-8.51981939653e-05
-0.000107956846806
-8.92169784219e-05