/*--------------------------------*- C++ -*----------------------------------*\
| =========                 |                                                 |
| \\      /  F ield         | OpenFOAM: The Open Source CFD Toolbox           |
|  \\    /   O peration     | Version:  v1806                                 |
|   \\  /    A nd           | Web:      www.OpenFOAM.com                      |
|    \\/     M anipulation  |                                                 |
\*---------------------------------------------------------------------------*/
FoamFile
{
    version     2.0;
    format      ascii;
    class       surfaceScalarField;
    location    "100";
    object      phi;
}
// * * * * * * * * * * * * * * * * * * * * * * * * * * * * * * * * * * * * * //

dimensions      [0 3 -1 0 0 0 0];
oriented        oriented;


internalField   nonuniform List<scalar> 
12640
(
1.02718451358e-05
-1.02795596295e-05
1.53565403167e-05
-5.09540125844e-06
1.17040923204e-05
3.64330392371e-06
-1.3399278529e-06
1.30364672443e-05
-2.37727738016e-05
2.24261859391e-05
-5.19311858522e-05
2.81536234672e-05
-8.25066563002e-05
3.05715888259e-05
-0.000113180499562
3.06705757907e-05
-0.000142431504601
2.92481585046e-05
-0.000169270998843
2.68370066524e-05
-0.000193583890947
2.43107704443e-05
-0.000215872245054
2.22865330435e-05
-0.000236280923204
2.04071426298e-05
-0.0002548486067
1.85663766393e-05
-0.000271613175668
1.67634872576e-05
-0.00028663542986
1.50213484528e-05
-0.00030000208008
1.33659204481e-05
-0.000311822255462
1.18195811968e-05
-0.000322221629306
1.03989151837e-05
-0.000331336218366
9.11423430684e-06
-0.000339306543464
7.97007272783e-06
-0.000346272598419
6.96588089055e-06
-0.000352369562215
6.09686482864e-06
-0.00035772434587
5.35474159743e-06
-0.00036245286581
4.72853022214e-06
-0.000366658094548
4.20527755572e-06
-0.000370428785154
3.7707728517e-06
-0.000373838871025
3.41019114836e-06
-0.000376947395832
3.10864841187e-06
-0.000379798868815
2.85160716356e-06
-0.00038242382582
2.62509793717e-06
-0.000384839544016
2.41585995867e-06
-0.000387050362659
2.21095796426e-06
-0.000389047322376
1.99709139137e-06
-0.000390807194936
1.75999259159e-06
-0.000392290930904
1.48383874407e-06
-0.00039344157364
1.15072238639e-06
-0.000394178982093
7.37458827688e-07
-0.000394397290538
2.18320246159e-07
-0.000393969178402
-4.28144976157e-07
-0.000392740495783
-1.22877383603e-06
-0.000390518879337
-2.22176976545e-06
-0.00038706967674
-3.44943583941e-06
-0.000382115768283
-4.95421959747e-06
-0.000375341352247
-6.77482496456e-06
-0.000366402397968
-8.93944907895e-06
-0.000354945753936
-1.14572428148e-05
-0.000340638669195
-1.43077620283e-05
-0.000323207090053
-1.74323495467e-05
-0.000302478091524
-2.07298261711e-05
-0.000278418477429
-2.40605244413e-05
-0.000251157867839
-2.72615726841e-05
-0.000220995622187
-3.01633349597e-05
-0.000188396112064
-3.26007877417e-05
-0.000153974948216
-3.44228360995e-05
-0.000118460274127
-3.55167838224e-05
-8.26146106652e-05
-3.58480822028e-05
-4.70075586777e-05
-3.5610099816e-05
-1.17297208082e-05
-3.52812629573e-05
2.15855673844e-05
-3.33179064822e-05
5.15439114768e-05
-2.99596288007e-05
7.71277713177e-05
-2.55845951625e-05
9.85199172078e-05
-2.13926307829e-05
0.000115733640871
-1.7214114691e-05
0.000128704062413
-1.29708279048e-05
0.000137415348974
-8.71174102381e-06
0.000141929213462
-4.51444280689e-06
0.000142434942488
-5.06429792581e-07
0.000139176440741
3.2576821758e-06
0.000132388722932
6.78681782378e-06
0.000122362077873
1.00256478871e-05
0.000109444235556
1.29167649004e-05
9.40473279485e-05
1.53956875317e-05
7.66621485592e-05
1.73838315166e-05
5.78763063324e-05
1.87843798321e-05
3.83953687584e-05
1.94792555293e-05
1.91295345698e-05
1.92637106565e-05
1.83221693611e-06
1.72950130559e-05
-5.34255921632e-06
7.16818605936e-06
-5.34435622807e-06
4.69187354073e-06
-1.49916928277e-05
-3.01712115611e-06
2.597894904e-06
-2.26223015488e-05
2.32415322574e-05
-4.63745863349e-05
3.6785022071e-05
-7.09459314313e-05
4.69946049966e-05
-9.69053335255e-05
5.41106102692e-05
-0.000123567273718
5.72311762412e-05
-0.000149832424299
5.69336315269e-05
-0.000175470812855
5.48845299681e-05
-0.000200276129254
5.16405623589e-05
-0.000223872860989
4.79058647546e-05
-0.000245706647694
4.41189248172e-05
-0.000265598656407
4.02978895133e-05
-0.000283504836319
3.64715045e-05
-0.000299446227997
3.27039513837e-05
-0.000313489974259
2.90643407511e-05
-0.00032573797545
2.5613277462e-05
-0.000336316846958
2.23979480709e-05
-0.000345369531237
1.94511882532e-05
-0.000353047994551
1.67923959223e-05
-0.000359507188079
1.44290414175e-05
-0.000364899843403
1.23583948922e-05
-0.000369372218326
1.05691588354e-05
-0.000373060615614
9.04311863125e-06
-0.000376088774438
7.75671302628e-06
-0.000378566043622
6.68261127605e-06
-0.000380586334137
5.79115751188e-06
-0.000382227693369
5.05166797625e-06
-0.000383552443273
4.43353374072e-06
-0.000384607710812
3.90701946252e-06
-0.000385426402992
3.4439442639e-06
-0.000386027621631
3.01722993981e-06
-0.000386417102925
2.60059398089e-06
-0.000386587879384
2.16800753562e-06
-0.000386519673134
1.69192375689e-06
-0.000386177184427
1.14145770823e-06
-0.00038550630995
4.79946364831e-07
-0.000384446059778
-3.22741946217e-07
-0.000382932984159
-1.29472517167e-06
-0.000380869654451
-2.49151809078e-06
-0.000378111767332
-3.98673633295e-06
-0.000374476908543
-5.85680540671e-06
-0.000369741669485
-8.18489622974e-06
-0.0003636387453
-1.10574925178e-05
-0.000355858107898
-1.4555861648e-05
-0.000346055414944
-1.87426843193e-05
-0.000333870150184
-2.36430920875e-05
-0.000318955837181
-2.92227984153e-05
-0.000301021568987
-3.53673575543e-05
-0.000279879433
-4.18728233129e-05
-0.00025548739872
-4.84534155208e-05
-0.000227973577979
-5.4776384634e-05
-0.000197633785126
-6.0504164485e-05
-0.000164935310888
-6.53005567757e-05
-0.000130510624633
-6.88490679802e-05
-9.50459029812e-05
-7.09834102801e-05
-5.91287550203e-05
-7.1767054479e-05
-2.31988189386e-05
-7.15419342905e-05
1.11458648461e-05
-6.96275092691e-05
4.25550853188e-05
-6.47284339449e-05
7.03118969542e-05
-5.77173239171e-05
9.49191415864e-05
-5.0192613838e-05
0.000115995406258
-4.24694435682e-05
0.000133308560266
-3.45278199988e-05
0.000146732440586
-2.63951714662e-05
0.000156206763955
-1.81866311158e-05
0.000161740101342
-1.00483389775e-05
0.000163363087141
-2.13011982931e-06
0.000161159689287
5.46038327295e-06
0.000155319027575
1.26266955806e-05
0.000146100153344
1.9243758343e-05
0.000133827510712
2.51885713851e-05
0.000118903445327
3.03189067183e-05
0.000101826342445
3.44600138633e-05
8.32243483124e-05
3.73854258636e-05
6.3928653597e-05
3.87740332836e-05
4.51063851132e-05
3.80849398609e-05
2.82829998108e-05
3.41168576139e-05
1.07223230266e-05
2.47275773034e-05
5.37521953775e-06
-1.05455659372e-05
-4.44453907393e-06
-3.03168001813e-05
2.23659857808e-05
-5.02324665839e-05
4.31549460799e-05
-7.19805471434e-05
5.85311348409e-05
-9.47053271215e-05
6.97176725098e-05
-0.000117512960547
7.69166820529e-05
-0.000140362125478
8.0078923696e-05
-0.000163255997238
7.98261305023e-05
-0.000185676185073
7.7303438693e-05
-0.000207243280717
7.32064315206e-05
-0.000227526869095
6.81883355625e-05
-0.000246115706311
6.27067209614e-05
-0.000262819057006
5.70003159146e-05
-0.000277594033019
5.12456442113e-05
-0.00029048532059
4.55945174006e-05
-0.000301590755332
4.01691437769e-05
-0.000311040557078
3.50625534016e-05
-0.000318983700906
3.03406514703e-05
-0.000325578404949
2.60455452957e-05
-0.000330985346619
2.21990674941e-05
-0.0003353625171
1.88060206985e-05
-0.000338861117207
1.58568688712e-05
-0.000341622175073
1.33301531778e-05
-0.000343773822637
1.11947532582e-05
-0.000345429308184
9.41223123796e-06
-0.000346685840437
7.93921190172e-06
-0.000347624189128
6.72960427249e-06
-0.0003483090115
5.73661110147e-06
-0.000348789759618
4.9144189321e-06
-0.000349102192284
4.21960180544e-06
-0.000349268859193
3.61076613269e-06
-0.000349300403298
3.04893377723e-06
-0.000349197103197
2.49744898318e-06
-0.000348948702118
1.91975908404e-06
-0.000348534154308
1.27751326992e-06
-0.00034792124046
5.28670309576e-07
-0.00034707953876
-3.61657808719e-07
-0.000345970675234
-1.43153057197e-06
-0.000344511727268
-2.75364524023e-06
-0.000342586022518
-4.41723340027e-06
-0.000340057011177
-6.51582754731e-06
-0.000336753283183
-9.16066997006e-06
-0.00033246011752
-1.24782904829e-05
-0.000326913393792
-1.66045157875e-05
-0.000319797136049
-2.16725250237e-05
-0.000310748945257
-2.77913517686e-05
-0.000299377440076
-3.50151740942e-05
-0.000285295824708
-4.33050402525e-05
-0.000268171969624
-5.24919152207e-05
-0.000247788196257
-6.22573204147e-05
-0.000224093355779
-7.21490502845e-05
-0.00019724018343
-8.16303931083e-05
-0.000167547525674
-9.019778472e-05
-0.000135520894331
-9.73283225187e-05
-0.000101842721584
-0.000102528539518
-6.71747393645e-05
-0.00010565264068
-3.21754832534e-05
-0.000106767409236
2.08657435257e-06
-0.000105804747267
3.36442304924e-05
-0.000101185736951
6.21994658967e-05
-9.32842367917e-05
8.8514817733e-05
-8.40333486158e-05
0.000112106281871
-7.3784735111e-05
0.000132451462116
-6.28152728776e-05
0.000149220560328
-5.1297507201e-05
0.00016222237113
-3.93975742496e-05
0.000171358260597
-2.73230906218e-05
0.000176617519979
-1.53082391181e-05
0.000178077797606
-3.59104967784e-06
0.000175868231248
7.66928263579e-06
0.000170174132107
1.83201604679e-05
0.000161229144046
2.81881079171e-05
0.000149320431823
3.70966642489e-05
0.000134797304952
4.48413998382e-05
0.000118084179818
5.11725035872e-05
9.96996434835e-05
5.57693263814e-05
8.0277864829e-05
5.81951295159e-05
6.05401167815e-05
5.78220522183e-05
4.10543896001e-05
5.36022067798e-05
2.1537918028e-05
4.42418110758e-05
2.69133137415e-05
-2.17958245011e-05
1.73381853507e-05
-4.26150610318e-05
4.3182352618e-05
-6.31016194654e-05
6.36399898062e-05
-8.38074255327e-05
7.9235714944e-05
-0.000104650345647
9.05595282082e-05
-0.000125288677366
9.75540987138e-05
-0.000145638096239
0.000100427486869
-0.000165605844481
9.97930717983e-05
-0.000184826120101
9.65229124838e-05
-0.000202968237717
9.13477808261e-05
-0.000219719248685
8.49385920048e-05
-0.0002348356804
7.78224435971e-05
-0.000248209079126
7.03730391982e-05
-0.000259839061644
6.2875011231e-05
-0.000269795073043
5.5549963656e-05
-0.000278188270825
4.85618454541e-05
-0.000285152458409
4.20263050632e-05
-0.000290832375606
3.60202047676e-05
-0.000295376922818
3.05897923556e-05
-0.000298934965352
2.57568794564e-05
-0.000301652114975
2.15230007559e-05
-0.000303667577828
1.78722239648e-05
-0.000305110919775
1.47734396109e-05
-0.000306099054164
1.21828813569e-05
-0.000306733885662
1.00470961234e-05
-0.000307100934428
8.30632880662e-06
-0.0003072689706
6.89773594202e-06
-0.000307290532303
5.75829011528e-06
-0.000307203800387
4.82782155279e-06
-0.000307033475798
4.04942292252e-06
-0.000306792591486
3.37003697858e-06
-0.000306484860154
2.74135938539e-06
-0.00030610560204
2.11835014593e-06
-0.000305642179743
1.45648821649e-06
-0.000305074997774
7.10477566485e-07
-0.000304386217102
-1.59983377077e-07
-0.000303556508175
-1.19125481702e-06
-0.000302530768551
-2.45719258891e-06
-0.000301228194132
-4.0561705426e-06
-0.000299559510272
-6.08592142689e-06
-0.000297407951565
-8.66743653236e-06
-0.000294620696451
-1.19480494261e-05
-0.00029099818921
-1.6100985483e-05
-0.000286282898808
-2.13200834149e-05
-0.000280151187507
-2.78045843044e-05
-0.000272212970701
-3.57300052366e-05
-0.000262027232959
-4.52014048515e-05
-0.000249140353893
-5.61924782573e-05
-0.00023315074002
-6.8482110718e-05
-0.000213794349916
-8.16143399702e-05
-0.000191009506205
-9.4934550265e-05
-0.000164997297177
-0.000107643334365
-0.000136124724969
-0.000119071188099
-0.000104951427842
-0.000128502538955
-7.22160409605e-05
-0.000135264802995
-3.86564010668e-05
-0.000139212942622
-4.9506455264e-06
-0.000140473405118
2.66470360349e-05
-0.000137402408865
5.57196944064e-05
-0.000130258460453
8.31825177814e-05
-0.000120747385497
0.00010849842088
-0.000109349752157
0.000131160781195
-9.64476973589e-05
0.000150716325972
-8.23714260235e-05
0.000166824882377
-6.74066773066e-05
0.000179260080416
-5.18333657717e-05
0.000187891379498
-3.59550071209e-05
0.000192680642379
-2.00981061767e-05
0.000193685028229
-4.59607928298e-06
0.000191019075757
1.03346336984e-05
0.000184880296631
2.44583762137e-05
0.000175517154031
3.75507291186e-05
0.000163223751221
4.93895646662e-05
0.000148335683231
5.97289849466e-05
0.000131225013237
6.8282691825e-05
0.000112294727037
7.46991296401e-05
9.19647404759e-05
7.8524672854e-05
7.0617145084e-05
7.91691481036e-05
4.84387197506e-05
7.57797203547e-05
2.50562058886e-05
6.76247396524e-05
5.19685311188e-05
-2.52880911581e-05
4.26325247498e-05
-4.70794703284e-05
6.49742209048e-05
-6.75126508781e-05
8.40727041881e-05
-8.74913437863e-05
9.9213778372e-05
-0.000106970393176
0.000110037996861
-0.000125818012423
0.00011640120457
-0.00014396411259
0.000118573130464
-0.000161293764529
0.000117122278611
-0.000177576575563
0.000112805287333
-0.00019259641324
0.000106367168388
-0.0002061703468
9.85120769003e-05
-0.00021818252739
8.98341679664e-05
-0.000228604792156
8.0794860296e-05
-0.000237477290125
7.17470749159e-05
-0.000244882028465
6.29542960051e-05
-0.000250925018341
5.46044559815e-05
-0.000255725527877
4.68264775789e-05
-0.000259410847438
3.97052277835e-05
-0.00026211409551
3.3292795663e-05
-0.00026397266783
2.7615255114e-05
-0.000265125602641
2.26757931806e-05
-0.000265709343094
1.84558696282e-05
-0.000265852548806
1.49165991243e-05
-0.000265671067008
1.20013932749e-05
-0.000265263888474
9.63994872911e-06
-0.000264711185139
7.75368644374e-06
-0.000264073958208
6.26059566177e-06
-0.000263395290308
5.0797293509e-06
-0.000262702102879
4.13475732459e-06
-0.00026200871297
3.35616965286e-06
-0.000261319806803
2.6812751075e-06
-0.000260631541118
2.05324513979e-06
-0.000259935402604
1.42236198304e-06
-0.000259216415068
7.37651643141e-07
-0.000258465764365
-4.00334103225e-08
-0.000257688559778
-9.37054906807e-07
-0.000256848497551
-2.03120743079e-06
-0.000255882082311
-3.42351395358e-06
-0.000254737387463
-5.20080994337e-06
-0.000253347115883
-7.47616736177e-06
-0.000251619920543
-1.03946626455e-05
-0.000249428960155
-1.41390888352e-05
-0.000246596823646
-1.89332752032e-05
-0.000242878085531
-2.50390392738e-05
-0.000237942057563
-3.27409124832e-05
-0.000231362372135
-4.23100512858e-05
-0.000222629039126
-5.39351628113e-05
-0.000211193088687
-6.76288791566e-05
-0.000196554151771
-8.31215353026e-05
-0.000178386353978
-9.97826423859e-05
-0.0001566160927
-0.000116705358904
-0.000131544593178
-0.000132715445511
-0.000103601639645
-0.000147014794344
-7.34100681219e-05
-0.000158694694624
-4.17753596472e-05
-0.000166899894367
-9.41686081213e-06
-0.000171571468611
2.16241342891e-05
-0.000171514121698
5.08400893386e-05
-0.000166618062626
7.88659289335e-05
-0.0001582842028
0.000105273394044
-0.000147155001058
0.000129575685783
-0.000133652398605
0.000151302538974
-0.000118175019081
0.000170034491252
-0.000101103913047
0.000185431169975
-8.28039119047e-05
0.000197240968057
-6.36437373893e-05
0.000205301077061
-4.40156873933e-05
0.000209542279135
-2.43399393956e-05
0.000209998288723
-5.05270293638e-06
0.000206756210473
1.35761447053e-05
0.000199990746358
3.12233318437e-05
0.000189935495653
4.76055129528e-05
0.000176878132444
6.24464973868e-05
0.000161146174256
7.54605346312e-05
0.000143086118769
8.63423563032e-05
0.000123039184907
9.47456807151e-05
0.000101312159752
0.000100251269722
7.81303872909e-05
0.000102350556079
5.35591282003e-05
0.000100351070642
2.73916767348e-05
9.37909014271e-05
7.93606870587e-05
-2.41028152578e-05
6.67314083696e-05
-4.6590455593e-05
8.74614285679e-05
-6.70731950804e-05
0.000104555272767
-8.63653321893e-05
0.000118505717453
-0.000104612436564
0.000128284910112
-0.000121819968493
0.000133608579032
-0.000137949760658
0.000134702778896
-0.000152913590375
0.000132085967557
-0.000166589140292
0.000126480673787
-0.000178874910736
0.000118652754766
-0.000189698983917
0.000109335933082
-0.000199034089984
9.91690360788e-05
-0.000206903681
8.86641890425e-05
-0.000213367927014
7.82110503767e-05
-0.000218506889947
6.8092980903e-05
-0.000222411853103
5.85091505745e-05
-0.000225183668666
4.95980358469e-05
-0.000226934768333
4.14560969175e-05
-0.000227791374183
3.41491977933e-05
-0.000227893211412
2.77169270656e-05
-0.000227389371615
2.21718246793e-05
-0.000226430459206
1.74968713219e-05
-0.000225159213219
1.36453049029e-05
-0.000223701869207
1.05440381282e-05
-0.000222161589761
8.09968916865e-06
-0.000220616555175
6.20869947365e-06
-0.000219121180653
4.76529258288e-06
-0.000217705427458
3.66406762002e-06
-0.000216381767832
2.81120676638e-06
-0.000215153150208
2.12767483854e-06
-0.000214014207156
1.5424673514e-06
-0.000212947924918
9.87104921164e-07
-0.000211936894575
4.11479923491e-07
-0.000210994831886
-2.04265378094e-07
-0.000210134461704
-9.00258311404e-07
-0.000209303630458
-1.7677538903e-06
-0.000208444907762
-2.88980467065e-06
-0.000207534834657
-4.33348640742e-06
-0.000206544803202
-6.19075689056e-06
-0.000205435253337
-8.58567229659e-06
-0.000204146602705
-1.16832992262e-05
-0.000202585710789
-1.57000237552e-05
-0.000200606240484
-2.09128373062e-05
-0.000197982794441
-2.7662651143e-05
-0.000194380466092
-3.634346363e-05
-0.000189328758909
-4.73620527951e-05
-0.000182227372098
-6.10368808763e-05
-0.000172406770374
-7.74498496261e-05
-0.000159229401223
-9.62992866744e-05
-0.000142316862332
-0.000116695584808
-0.000121590164407
-0.000137432500018
-9.74975879076e-05
-0.000156808467412
-7.05324912832e-05
-0.000173980247706
-4.14214601335e-05
-0.000187805896785
-1.10073129805e-05
-0.000197313922368
1.89603055461e-05
-0.00020153869033
4.77136156583e-05
-0.000200266957402
7.570118771e-05
-0.000194605271959
0.000102611498261
-0.000185194366512
0.00012794364835
-0.000172487230518
0.000151218282786
-0.000156927290264
0.000171993737516
-0.000138950853667
0.000189874807103
-0.000118985433666
0.00020452404856
-9.74536499852e-05
0.00021567112585
-7.47913400354e-05
0.000223121144523
-5.14662763232e-05
0.000226768240177
-2.79875961146e-05
0.000226611656723
-4.8967284148e-06
0.000222705033521
1.7482221312e-05
0.000215199280974
3.87286026138e-05
0.000204307524873
5.84968382415e-05
0.000190302199191
7.64514300232e-05
0.000173496967822
9.22654041567e-05
0.000154220390335
0.000105618590445
0.000132786388319
0.000116179348302
0.000109462953393
0.000123574412238
8.4435611885e-05
0.000127377566862
5.77784541031e-05
0.000127007560055
2.9452944103e-05
0.000122117156793
0.000108813083656
-2.25923138515e-05
8.93297647708e-05
-4.41875321574e-05
0.000109058562272
-6.40515370285e-05
0.00012442003705
-8.24282316992e-05
0.000136882767047
-9.94048609036e-05
0.000145261760148
-0.000115018705201
0.000149222588438
-0.000129264243939
0.000148948457119
-0.000142103238143
0.000144925064484
-0.00015349246166
0.000137869967288
-0.000163414101187
0.000128574417714
-0.000171876190392
0.000117798007179
-0.000178909654526
0.000106202439182
-0.000184564275738
9.43187153537e-05
-0.000188900195831
8.25468396999e-05
-0.000191982221189
7.11748548814e-05
-0.000193881366826
6.04081253014e-05
-0.000194681829719
5.03983254614e-05
-0.000194489585929
4.12636788985e-05
-0.000193437915216
3.30973676379e-05
-0.000191686899403
2.59657685244e-05
-0.000189415929189
1.99007401018e-05
-0.000186809037314
1.48898933623e-05
-0.000184038659409
1.08748715263e-05
-0.000181252244996
7.75759615409e-06
-0.000178561494044
5.40893667785e-06
-0.000176041937585
3.68916668818e-06
-0.000173736877511
2.46027837643e-06
-0.000171655292658
1.58255070075e-06
-0.000169788073307
9.44075148011e-07
-0.000168118088893
4.57796836963e-07
-0.000166627432272
5.19321465988e-08
-0.000165328616825
-3.11576752452e-07
-0.000164226680493
-6.90316582314e-07
-0.000163261671142
-1.16913032026e-06
-0.000162351056092
-1.810732757e-06
-0.000161456640007
-2.66203015411e-06
-0.000160573624831
-3.77269299562e-06
-0.000159697576473
-5.20941277636e-06
-0.000158823096938
-7.065137261e-06
-0.000157940063853
-9.46861798816e-06
-0.000157025559336
-1.25977523169e-05
-0.000156028921064
-1.66966347436e-05
-0.000154846924546
-2.2094866588e-05
-0.000153285521305
-2.92241331541e-05
-0.000151014519796
-3.86146267047e-05
-0.00014751060216
-5.08661824801e-05
-0.000142057829518
-6.64899152624e-05
-0.000133843114977
-8.56648406106e-05
-0.000122061483061
-0.0001080812038
-0.000106329945255
-0.000132427425139
-8.65708755059e-05
-0.000157191835943
-6.34173420351e-05
-0.000179962156868
-3.7431427399e-05
-0.000199966141945
-9.46343635063e-06
-0.000215773623266
1.87499094676e-05
-0.000225526794939
4.64200532206e-05
-0.000229208302629
7.38341424477e-05
-0.000227680580734
0.000100678314435
-0.000221449129557
0.000126444907851
-0.00021096082987
0.000150648243908
-0.000196690614143
0.000172840716791
-0.000179119956277
0.00019261302667
-0.000158723463664
0.000209594381404
-0.000135967166984
0.000223454010783
-0.000111313713909
0.000233906885568
-8.52446918779e-05
0.00024072417732
-5.82840709084e-05
0.000243756117129
-3.10201377429e-05
0.000242962312063
-4.10349994249e-06
0.000238365424428
2.20785848732e-05
0.000230085542971
4.7008019743e-05
0.00021830978744
7.02721780616e-05
0.000203293328285
9.14675151778e-05
0.000185336422383
0.00011022196941
0.000164755714227
0.000126198987822
0.000141855570519
0.000139079202957
0.000116900130449
0.000148529530889
9.00852529427e-05
0.000154192200231
6.15294948534e-05
0.000155563544049
3.12933485311e-05
0.000152352398599
0.000140106898389
-2.08612632753e-05
0.000110191291081
-4.10570965037e-05
0.000129255744473
-5.97606420408e-05
0.00014312459994
-7.69252477202e-05
0.000154048090498
-9.25190124931e-05
0.000160856061683
-0.000106552532569
0.000163256549826
-0.000119026913172
0.000161423206058
-0.000129948964287
0.000155847431108
-0.000139336243395
0.000147257501714
-0.000147226262598
0.000136464641563
-0.000153672683284
0.000124244572709
-0.000158734490227
0.000111264340464
-0.000162466284437
9.80505481306e-05
-0.000164913744251
8.4994293776e-05
-0.000166117778599
7.23788380979e-05
-0.000166126341241
6.04166069415e-05
-0.000165010110548
4.92819851912e-05
-0.000162877989373
3.9131433671e-05
-0.000159885474684
3.01047158733e-05
-0.000156233498639
2.23136594815e-05
-0.000152154866838
1.58219856137e-05
-0.000147892982323
1.06279053862e-05
-0.000143671520431
6.65332443459e-06
-0.000139670141016
3.75615126226e-06
-0.000136001741733
1.7404926262e-06
-0.000132723896779
4.11298245075e-07
-0.00012986690943
-3.96707828549e-07
-0.000127478224256
-8.06109229526e-07
-0.000125557687728
-9.76410142361e-07
-0.000124021945615
-1.07787127865e-06
-0.000122768759066
-1.20115822282e-06
-0.000121674211117
-1.40601228366e-06
-0.000120638713153
-1.72568843398e-06
-0.000119627275719
-2.18043286843e-06
-0.000118631744106
-2.80612329112e-06
-0.00011765202747
-3.6416056338e-06
-0.00011669053685
-4.73404035039e-06
-0.000115753651788
-6.14616195703e-06
-0.000114853752195
-7.96490134776e-06
-0.000114008697165
-1.0313552375e-05
-0.00011323599408
-1.33703406013e-05
-0.000112538344391
-1.7394205365e-05
-0.000111872924943
-2.27602406784e-05
-0.000111097260249
-2.99998208213e-05
-0.000109904447612
-3.98075217205e-05
-0.000107711200834
-5.30595755057e-05
-0.000103650344437
-7.05509536656e-05
-9.67652831567e-05
-9.25500913574e-05
-8.60487168579e-05
-0.000118797938169
-7.12069942193e-05
-0.000147269238651
-5.22137229015e-05
-0.000176185083193
-2.9898868068e-05
-0.0002022768252
-4.84393047655e-06
-0.000225020685977
2.10348036213e-05
-0.000241651818208
4.70358903784e-05
-0.000251527321053
7.33782117217e-05
-0.000255550119562
9.96382810604e-05
-0.000253940260097
0.000125286739813
-0.000247097339473
0.0001498290187
-0.00023550301092
0.000172813813707
-0.000219675449622
0.000193833551996
-0.000200139852462
0.000212517950321
-0.000177408113737
0.000228527791595
-0.000151977334071
0.000241547661542
-0.000124333967965
0.000251284827351
-9.4982297222e-05
0.00025747425042
-6.44740072809e-05
0.000259911737707
-3.34581344672e-05
0.000258503803343
-2.6961634321e-06
0.000253243352981
2.73385141147e-05
0.000244208650572
5.60422636805e-05
0.000231562142973
8.29182794671e-05
0.000215548161846
0.000107481133501
0.00019645910041
0.00012931070807
0.000174603652592
0.000148054145951
0.000150281660326
0.000163400930754
0.000123762564191
0.000175048416987
9.52647431156e-05
0.000182689783343
6.49532038226e-05
0.000185874569219
3.29643133012e-05
0.000184342046523
0.000173070830832
-1.91224878124e-05
0.000129319000316
-3.76643458684e-05
0.00014780011998
-5.4904548329e-05
0.000160366343951
-7.06346792067e-05
0.000169779285819
-8.47406038856e-05
0.000174962806979
-9.71995542826e-05
0.000175716166664
-0.00010801015565
0.000172234377091
-0.000117206565434
0.000165044323777
-0.000124846384825
0.000154897737434
-0.000131001299817
0.000142619900343
-0.000135745621047
0.000128989176462
-0.000139142783992
0.00011466171755
-0.000141235711224
0.000100143629641
-0.000142046862912
8.58055363947e-05
-0.000141590071592
7.19220857305e-05
-0.000139891511804
5.87180335868e-05
-0.000137013494558
4.64039113086e-05
-0.000133075182639
3.51930209811e-05
-0.0001282739269
2.5303333761e-05
-0.000122887767755
1.69273580754e-05
-0.000117246822932
1.01808976471e-05
-0.000111681070018
5.0620091026e-06
-0.000106463557887
1.43567620004e-06
-0.000101802290086
-9.05242982645e-07
-9.79366541019e-05
-2.12525245102e-06
-9.49994044569e-05
-2.52603600254e-06
-9.287709999e-05
-2.51907015702e-06
-9.12778628718e-05
-2.40536940606e-06
-8.99346305098e-05
-2.31963463127e-06
-8.8723559406e-05
-2.28889784588e-06
-8.75834506728e-05
-2.3411937242e-06
-8.64834399876e-05
-2.50592008365e-06
-8.54039777915e-05
-2.80502387506e-06
-8.43245244484e-05
-3.25974264825e-06
-8.3230785027e-05
-3.8997055651e-06
-8.21121233264e-05
-4.76010426723e-06
-8.09625569516e-05
-5.88344000516e-06
-7.9784968429e-05
-7.32358319091e-06
-7.85965920012e-05
-9.1531110383e-06
-7.74342309877e-05
-1.14757487996e-05
-7.63527273526e-05
-1.44516915046e-05
-7.54145768849e-05
-1.83322279966e-05
-7.46649564974e-05
-2.35097717597e-05
-7.40414486287e-05
-3.06233014302e-05
-7.33159269408e-05
-4.05330832629e-05
-7.18466687785e-05
-5.45289335463e-05
-6.85532323734e-05
-7.38444885672e-05
-6.23812085015e-05
-9.87221459299e-05
-5.21029949259e-05
-0.000129076070206
-3.76340137066e-05
-0.000161738011341
-1.91426226912e-05
-0.000194676120305
2.46198268158e-06
-0.000223880930137
2.56014980661e-05
-0.000248159626367
4.94766534059e-05
-0.000265526409797
7.43434185011e-05
-0.000276393581537
9.9584109737e-05
-0.000280790402863
0.000124642600621
-0.000278998455919
0.000149005194299
-0.000271459758629
0.000172210085044
-0.000258707843011
0.000193848502895
-0.000241313915415
0.000213560588203
-0.000219852078081
0.000231024329922
-0.000194872074961
0.000245944644355
-0.000166897936528
0.000258038668929
-0.000136428342858
0.000267024674917
-0.000103968710001
0.00027260854495
-7.00583304535e-05
0.000274514902602
-3.53650887936e-05
0.000272566454197
-7.48277795429e-07
0.000266740494502
3.31639567039e-05
0.000257049702385
6.57325963917e-05
0.000243629729565
9.63378442667e-05
0.000226717583622
0.000124392920743
0.000206603340686
0.00014942463732
0.000183592504276
0.000171064714714
0.000157982009351
0.000189011196592
0.000130044741453
0.000202985442905
0.000100017873716
0.00021271649398
6.81074372031e-05
0.000217785272936
3.4510298387e-05
0.000217938485385
0.000207581538629
-1.73290734739e-05
0.000146649614466
-3.41765408916e-05
0.000164649537908
-4.98311195542e-05
0.000176022488482
-6.40145051267e-05
0.00018396389813
-7.65857096711e-05
0.000187534994729
-8.7500739939e-05
0.00018663202467
-9.67594815771e-05
0.000181493822985
-0.000104412665501
0.000172698123546
-0.000110540023906
0.00016102562441
-0.000115230685318
0.000147311019545
-0.000118564572117
0.000132323443323
-0.000120597137491
0.000116694593516
-0.000121352495356
0.000100899223042
-0.000120828989036
8.52821981436e-05
-0.000119017922194
7.01111175461e-05
-0.000115929422296
5.56295736411e-05
-0.000111629376352
4.21038373073e-05
-0.000106282144883
2.98456989696e-05
-0.000100169004284
1.91900433172e-05
-9.36751095546e-05
1.04332803237e-05
-8.72458784393e-05
3.75146209665e-06
-8.130612776e-05
-8.77953971453e-07
-7.63360148955e-05
-3.53465156843e-06
-7.26912659222e-05
-4.55019639779e-06
-7.01946157768e-05
-4.62208649986e-06
-6.83574409156e-05
-4.36336669046e-06
-6.68598694765e-05
-4.01675821733e-06
-6.55714000419e-05
-3.6939167371e-06
-6.44314773334e-05
-3.45958724239e-06
-6.3384757276e-05
-3.33561148037e-06
-6.23884929076e-05
-3.33740548955e-06
-6.14111030539e-05
-3.48322546197e-06
-6.04237044772e-05
-3.79229748057e-06
-5.93960106548e-05
-4.28728793718e-06
-5.82980792306e-05
-4.9974652722e-06
-5.70997357354e-05
-5.95827361134e-06
-5.57730893845e-05
-7.20990981144e-06
-5.42973027431e-05
-8.79919777172e-06
-5.26698171064e-05
-1.07804354163e-05
-5.09169601878e-05
-1.32284503514e-05
-4.91004533954e-05
-1.62680659244e-05
-4.7320103767e-05
-2.01124754033e-05
-4.57289577845e-05
-2.51008541276e-05
-4.43580129649e-05
-3.19942184115e-05
-4.31573976571e-05
-4.17336894155e-05
-4.14723986238e-05
-5.62138950583e-05
-3.79394455895e-05
-7.73773190879e-05
-3.14978899905e-05
-0.000105163466877
-2.09335939429e-05
-0.000139639993463
-6.18994838364e-06
-0.000176481155059
1.16624822688e-05
-0.000212527977089
3.18508184864e-05
-0.00024406868625
5.34684777753e-05
-0.000269776740985
7.65578182376e-05
-0.000288615267108
0.000100461469852
-0.00030029683355
0.000124576630041
-0.000304905256415
0.000148357064646
-0.000302778680997
0.000171318046249
-0.000294420625306
0.000193037961119
-0.000280427733227
0.000213156215879
-0.000261432228472
0.00023136711504
-0.000238063110348
0.000247405601558
-0.000210910762724
0.000261033892596
-0.000180526490929
0.000272025712287
-0.0001474204864
0.000280144576944
-0.000112087967413
0.000285114598543
-7.50288415772e-05
0.000286634410873
-3.68853961707e-05
0.0002843646887
1.52083150347e-06
0.000278161477833
3.93666464564e-05
0.000267976143934
7.59174741751e-05
0.000253946064694
0.000110367524793
0.000236321877926
0.000142016760474
0.000215393253637
0.000170352967502