/*--------------------------------*- C++ -*----------------------------------*\
| =========                 |                                                 |
| \\      /  F ield         | OpenFOAM: The Open Source CFD Toolbox           |
|  \\    /   O peration     | Version:  v1806                                 |
|   \\  /    A nd           | Web:      www.OpenFOAM.com                      |
|    \\/     M anipulation  |                                                 |
\*---------------------------------------------------------------------------*/
FoamFile
{
    version     2.0;
    format      ascii;
    class       surfaceScalarField;
    location    "100";
    object      phia;
}
// * * * * * * * * * * * * * * * * * * * * * * * * * * * * * * * * * * * * * //

dimensions      [0 3 -1 0 0 0 0];
oriented        oriented;


internalField   nonuniform List<scalar> 
12640
(
-0.000218478866394
0.00023072924813
-0.000304965823529
9.96242683856e-05
-0.000294332812917
-1.69435540988e-07
-0.000283741623793
-2.00296951337e-06
-0.000297098395715
1.94081735712e-05
-0.000352818984589
5.96185556441e-05
-0.000430595642732
8.06729479813e-05
-0.000515314901335
8.69670635378e-05
-0.000598060276787
8.4517962372e-05
-0.00067785953338
8.12182842484e-05
-0.000751553627579
7.48088063464e-05
-0.000817455302764
6.68017838279e-05
-0.000875549853352
5.88278984241e-05
-0.000926353123654
5.142741783e-05
-0.000970881470591
4.50719373277e-05
-0.00101031020958
3.99269920616e-05
-0.00104565158779
3.58097595904e-05
-0.00107756489116
3.23722357319e-05
-0.0011064698433
2.93608075033e-05
-0.00113270467611
2.66999651298e-05
-0.00115663810411
2.44096791456e-05
-0.00117865649686
2.25153027213e-05
-0.00119914639993
2.10087900928e-05
-0.00121844061767
1.98446028576e-05
-0.0012368115435
1.89555984618e-05
-0.00125444147093
1.82588529608e-05
-0.00127143736934
1.7673241328e-05
-0.0012878207399
1.71187785435e-05
-0.00130355901742
1.65362014169e-05
-0.00131857136427
1.58814161229e-05
-0.00133277216445
1.51448719257e-05
-0.00134607643357
1.4330972234e-05
-0.00135844380044
1.34803516289e-05
-0.00136990941021
1.26719598442e-05
-0.00138069005512
1.20845733567e-05
-0.00139062485041
1.13411802782e-05
-0.0013970895659
7.97887962029e-06
-0.0013967170709
1.25065118465e-06
-0.00138895800512
-6.02156446252e-06
-0.00137412100365
-1.29940961032e-05
-0.00135257970026
-1.95914425224e-05
-0.00132371406282
-2.68310902529e-05
-0.0012867457735
-3.48566958863e-05
-0.00124099534919
-4.3599553574e-05
-0.00118617722475
-5.26492711111e-05
-0.00112289104873
-6.11438683117e-05
-0.00105312391163
-6.76808697428e-05
-0.000980793227302
-7.03365035038e-05
-0.000911990454666
-6.69256442646e-05
-0.000854676090491
-5.55721448322e-05
-0.000817601841525
-3.54768202459e-05
-0.000808610301466
-7.53423167684e-06
-0.000833214730266
2.59350000173e-05
-0.000893197145302
6.12285154675e-05
-0.000987527925695
9.55438311635e-05
-0.00110937953728
0.000123076899103
-0.00125264333654
0.000144539698042
-0.0013357957779
8.46800951563e-05
-0.00104612486401
-0.000287730580488
-0.000186927869481
-0.000857415541451
0.00020982055321
-0.000395646666229
0.000365246031709
-0.000154691021917
0.000486802350042
-0.000121009105415
0.000608396933672
-0.000121161799748
0.000735774654706
-0.000127017983688
0.000858861506717
-0.000122777304648
0.000966829463041
-0.000107692598157
0.001053504445
-8.64246777647e-05
0.00109889147493
-4.51597027159e-05
0.00111675514925
-1.7652529677e-05
0.00111816587167
-1.20992847771e-06
0.00110581640438
1.25489502174e-05
0.00108044293215
2.55776334723e-05
0.00104170117516
3.89624010778e-05
0.000987889030761
5.405993308e-05
0.000917973889917
7.02055779423e-05
0.000839171100243
7.92129376082e-05
0.000756108477194
8.3657161718e-05
0.000616044227909
0.000141110504584
0.000616520930528
-0.000372684318332
0.000621406437327
-0.000449409869544
0.000189932375139
-0.000441881283868
-1.66366802879e-06
-0.000539751197909
9.91520100618e-05
-0.000724965077495
0.000206937174088
-0.000951084977904
0.000287495244829
-0.00120026794446
0.000331337342336
-0.00145409192898
0.00034197459522
-0.00170116063643
0.000332569034277
-0.00193044148121
0.000311270133834
-0.00213898450259
0.00028397876314
-0.00232581737506
0.000254129925717
-0.00249093143207
0.000224352486084
-0.00263566299137
0.000196501574006
-0.00276187253351
0.000171584423676
-0.00287142869097
0.000149761018782
-0.00296602091429
0.000130669914758
-0.00304719874197
0.000113819249283
-0.00311638246447
9.88205898938e-05
-0.00317483381482
8.54432332346e-05
-0.00322367214858
7.35546461965e-05
-0.00326387662483
6.30505595257e-05
-0.00329631698001
5.37987104902e-05
-0.00332173198092
4.56401449622e-05
-0.00334075764599
3.83850785269e-05
-0.00335390409
3.18481870056e-05
-0.00336160351659
2.58454608398e-05
-0.00336419271581
2.02293508579e-05
-0.00336196877211
1.48716483787e-05
-0.0033551580413
9.68864666311e-06
-0.00334396099147
4.61254364738e-06
-0.00332850341204
-3.93110974768e-07
-0.00330885380324
-5.37941587213e-06
-0.00328493249997
-1.03800235536e-05
-0.00325678576401
-1.51270391751e-05
-0.00322623193375
-1.81897514473e-05
-0.00319736788509
-1.97895796384e-05
-0.00317042194001
-2.45117973581e-05
-0.00313970445563
-3.54850811583e-05
-0.00310282864927
-4.85428359412e-05
-0.00305869187919
-6.23455179776e-05
-0.00300614657435
-7.79549936867e-05
-0.00294338496786
-9.61738509652e-05
-0.00286770968353
-0.000117844693334
-0.00277511687735
-0.000143834554354
-0.00266009260831
-0.000174828891007
-0.0025156840087
-0.000210812429478
-0.00233447619831
-0.000250366597463
-0.00211056810828
-0.000289735918478
-0.00184275314062
-0.000322390037671
-0.00153782799606
-0.00033947897433
-0.00121279487589
-0.000331718864906
-0.000894371086185
-0.000291679909633
-0.00061580772346
-0.000216533719945
-0.000410724611284
-0.000108693963421
-0.000303751965297
1.70098188179e-05
-0.000299415702619
0.000141167987203
-0.000310563642299
9.6922058232e-05
-0.000150768834474
-0.000446411491455
-1.62907183593e-05
-0.0009909958244
0.00021844791366
-0.000629699086413
0.000530050573114
-0.000465729466896
0.000825762236809
-0.000416243435157
0.00107035753992
-0.000365343101616
0.00124526478498
-0.000301560238746
0.00134924774942
-0.000226432776235
0.0013916448932
-0.000149791906867
0.00137964456639
-7.41502418303e-05
0.00135161373337
-1.68861472516e-05
0.00131585215991
1.83238079977e-05
0.00126603354071
4.88024102982e-05
0.00120213409003
7.66276383149e-05
0.00112550795529
0.000102374724597
0.00103820641427
0.000126433659882
0.000941841906099
0.000150591928725
0.000837306781386
0.000174919853256
0.000732299370039
0.000184407403969
0.000650278287301
0.000165936278432
0.000509918592552
0.000281864615457
0.00112676277163
-0.000652843521694
0.00127903872536
-0.000532963147226
7.40379412936e-05
-0.000592822640071
6.05994110257e-05
-0.000784297448241
0.000292291348744
-0.00103759280483
0.000461383934225
-0.00130213095853
0.00055287314898
-0.0015533443268
0.000583167101528
-0.00178035620953
0.000569471350736
-0.00197570602175
0.000528285534349
-0.002136946622
0.00047280023164
-0.00226536668414
0.000412617482344
-0.00236461488382
0.000353554404557
-0.00243869989252
0.000298579129035
-0.00249118755792
0.00024911411357
-0.00252523022215
0.000205741791333
-0.00254376616747
0.000168412024087
-0.00254953660927
0.000136561388736
-0.00254502348461
0.0001094386512
-0.00253240417364
8.63498399711e-05
-0.00251352712297
6.6732022623e-05
-0.00248992503329
5.01394986727e-05
-0.00246286381547
3.61947282868e-05
-0.0024333903381
2.45531861055e-05
-0.00240237933874
1.48739436687e-05
-0.00237055274552
6.82597797286e-06
-0.00233850736318
8.54969443939e-08
-0.00230671494305
-5.64092790927e-06
-0.00227554165124
-1.06228631583e-05
-0.00224523703556
-1.50864716738e-05
-0.00221594984888
-1.92352471845e-05
-0.0021877107892
-2.32340325968e-05
-0.00216046440953
-2.72266423852e-05
-0.00213406587134
-3.13304432413e-05
-0.00210822267163
-3.57512180969e-05
-0.00208160895545
-4.12301822721e-05
-0.00205071830083
-4.85451491329e-05
-0.00201587167663
-5.40667277444e-05
-0.00198050568706
-5.92929514423e-05
-0.00194643437465
-6.89545008152e-05
-0.00191341119332
-8.09670312894e-05
-0.00188051446534
-9.46557592871e-05
-0.00184734587269
-0.00011056660291
-0.00181383628628
-0.000129175624411
-0.00178041648601
-0.000150810582773
-0.00174808461358
-0.000175786203283
-0.00171801774405
-0.000204573844245
-0.0016904936318
-0.000238082962132
-0.00166291253937
-0.000277730482156
-0.00162765148571
-0.00032481776532
-0.0015712242122
-0.000378640903614
-0.00147677044506
-0.000433756449869
-0.0013303882793
-0.00047788943905
-0.00112981302613
-0.000491994771389
-0.000892084039062
-0.000453908973322
-0.00065487217017
-0.000345458130591
-0.000470379188628
-0.000166961480557
-0.000355804502958
2.71879655297e-05
-0.00015904614855
-9.92132034711e-05
0.000153002475555
-0.000757901854946
0.000221951314923
-0.00105945469564
0.000338631533332
-0.000745917885119
0.000477218161598
-0.000603882282097
0.000552701580897
-0.0004913224742
0.000567349126142
-0.000379615655603
0.000544095766126
-0.000277958362161
0.0005128474548
-0.000194859435664
0.000494312994086
-0.000130949382602
0.000503003709287
-8.25549225221e-05
0.000526569158861
-4.01994541092e-05
0.000539737634242
5.37339721184e-06
0.000537162221888
5.15687567485e-05
0.00051818140552
9.57771905641e-05
0.000483775060806
0.000136934444898
0.000435792351119
0.000174554645656
0.000376761314111
0.000209758444367
0.000309320508146
0.00024248157034
0.000236295276071
0.000257561223197
0.000168203647827
0.000234141576728
0.000122996557908
0.000327309325324
0.00124985475885
-0.000580519184882
0.00186750901972
-0.000483012669963
-2.10768330248e-05
-0.00069400802247
0.000272864456354
-0.00100895636953
0.000607997383946
-0.00131960035981
0.00077245598537
-0.00159673355785
0.000830209637037
-0.00183249357392
0.000819017952926
-0.0020250077136
0.000762003510149
-0.00217657073312
0.000679839205547
-0.00229224124324
0.000588440952032
-0.00237779729896
0.000498144329658
-0.00243893057812
0.000414660307649
-0.00248080027543
0.00034043256465
-0.0025077237116
0.000276031925007
-0.00252316157854
0.000221187701422
-0.00252991321949
0.000175185645284
-0.00253029339754
0.000136978198486
-0.00252619258026
0.000105390944176
-0.0025191086891
7.9334886597e-05
-0.00251018497412
5.7895764787e-05
-0.00250026169398
4.03190482708e-05
-0.00248992241375
2.59760213265e-05
-0.00247955552483
1.43180727815e-05
-0.00246939363765
4.85722468861e-06
-0.00245956252197
-2.85579150898e-06
-0.00245009736903
-9.22289828291e-06
-0.00244097718271
-1.46071097529e-05
-0.00243212459305
-1.93192820846e-05
-0.00242343576781
-2.36271376869e-05
-0.00241477387745
-2.77498166766e-05
-0.00240599079704
-3.18806456138e-05
-0.00239688554703
-3.6197102755e-05
-0.00238727874285
-4.08151001957e-05
-0.00237729401323
-4.56173257769e-05
-0.00236795372101
-5.04699897394e-05
-0.00235835158346
-5.80593569303e-05
-0.00234361302901
-6.87484224294e-05
-0.00232219193999
-8.06891197519e-05
-0.00229476102505
-9.64114374927e-05
-0.00225973944431
-0.000116073642926
-0.00221490708628
-0.000139645738012
-0.00215794671916
-0.000167768386996
-0.002086308503
-0.000201136834335
-0.00199752462951
-0.000240002985963
-0.00189001731791
-0.000283762050016
-0.00176447508253
-0.000330634723944
-0.00162535903858
-0.000377725142156
-0.00148156789064
-0.000422039077478
-0.00134454950399
-0.000462304105923
-0.00122328032271
-0.00050031741413
-0.00111791734802
-0.000539433889783
-0.00101693308987
-0.000579088463474
-0.00090240615592
-0.000606604680354
-0.000764361721638
-0.000591908309579
-0.000615765510381
-0.000493901801936
-0.000495392087778
-0.000287114721287
-0.000347454307075
-0.000120504099941
-2.06831505189e-05
-0.000425741032765
0.000270848512535
-0.0010491748587
0.000315263460764
-0.00110357646326
0.000366477258037
-0.000796812399841
0.000404045387863
-0.000641121355504
0.000415389980428
-0.0005023399606
0.000424410530576
-0.000388317352677
0.000445308404224
-0.000298548015249
0.000479814310356
-0.000229067502825
0.00051856260828
-0.000169412451658
0.000548114255459
-0.000111832541638
0.000559478774284
-5.13232667238e-05
0.000555330630112
9.72749407127e-06
0.000538078980484
6.89974179263e-05
0.000507667166433
0.000126343039306
0.000463976900492
0.000180757833051
0.000407316986253
0.000231336190751
0.000338708963579
0.000278467592492
0.000259010381057
0.00032228146752
0.000167157079965
0.00034949712394
7.11675967972e-05
0.000330232743777
2.05678125191e-05
0.000377986957244
0.00127048399657
-0.000253574493439
0.00211965252093
-0.000345762383806
7.11998060977e-05
-0.00076024048008
0.000687572421808
-0.00116239831404
0.00101024901872
-0.00149163400862
0.00110163671509
-0.00175068044833
0.00108911037272
-0.00194418519164
0.001012328135
-0.00208013754168
0.000897763342089
-0.00216960081874
0.000769126356617
-0.00222374172559
0.000642439798718
-0.00225200248222
0.000526296044487
-0.00226181954185
0.000424403875498
-0.00225893862625
0.00033750891321
-0.00224762076883
0.000264698430214
-0.00223080461238
0.000204378804042
-0.00221041319484
0.000154819169789
-0.00218773626635
0.000114342242892
-0.00216369456199
8.14014997461e-05
-0.00213895766657
5.46626874723e-05
-0.00211401144274
3.30222569381e-05
-0.00208919143985
1.55819835271e-05
-0.00206472151118
1.59378987984e-06
-0.00204073608954
-9.57360113948e-06
-0.00201731753773
-1.84689739542e-05
-0.00199451274139
-2.5568874004e-05
-0.00197236145087
-3.12914481221e-05
-0.00195089739111
-3.59965962953e-05
-0.00193015071357
-4.00079185899e-05
-0.00191013563068
-4.35987145797e-05
-0.00189084913847
-4.70155202754e-05
-0.0018722614817
-5.04669683595e-05
-0.00185424061364
-5.42449526755e-05
-0.00183640717119
-5.8700709248e-05
-0.00181807020649
-6.40432443184e-05
-0.00179845611493
-7.02096600846e-05
-0.00177996170053
-7.67299101504e-05
-0.00176324069235
-8.57003396526e-05
-0.00174767046836
-9.6559287062e-05
-0.00173392641137
-0.000110532865624
-0.00172186605828
-0.000128598418365
-0.00171055109723
-0.000151519351224
-0.0016984277119
-0.000180541233086
-0.00168297560859
-0.000217325102546
-0.00166024946328
-0.000263528755562
-0.00162464391599
-0.000320209826508
-0.00156926064108
-0.000386865061178
-0.00148756253671
-0.000460246910189
-0.0013766170292
-0.000533750360793
-0.00124081841442
-0.000598790341845
-0.00109284311177
-0.00064887913626
-0.000948836475833
-0.000683916622973
-0.000818734204197
-0.000709537477831
-0.000700643990946
-0.000724916283242
-0.000587357729643
-0.000705310507963
-0.000486779934165
-0.000594529453949
-0.000402906867646
-0.000371005862776
-0.000213880783252
-0.000309527198612
0.000130119889675
-0.000769695171288
0.000319681462843
-0.00123863008074
0.00032799172988
-0.0011117224466
0.000351298964944
-0.000819914502865
0.000364864898083
-0.000654458198135
0.000379827136298
-0.000517062426523
0.000406453671195
-0.00041470037453
0.000441046972981
-0.000332898640171
0.000474352987234
-0.000262133201729
0.000498891522239
-0.000193707250018
0.000512307072867
-0.000125013869813
0.000516211541805
-5.50200982082e-05
0.000510934753679
1.51832502215e-05
0.000495566231111
8.4521010187e-05
0.000469590304041
0.000152452971271
0.000432390669184
0.000218076045903
0.000383554595528
0.000280271948068
0.000323312225357
0.000338805008362
0.000251649642693
0.000394020360782
0.000165953070494
0.000435271060516
6.86128607186e-05
0.000427623167378
4.85638938276e-07
0.000446190340884
0.00127099705767
-0.000104704333551
0.00222500706377
-0.000375020900218
0.000341251234031
-0.000906041944418
0.00121822336914
-0.00131755031652
0.0014213927523
-0.00161769695286
0.00140140802762
-0.00182528748753
0.00129632707367
-0.00195345115725
0.00114015332298
-0.00202099895932
0.000965019734223
-0.00204709804745
0.00079499562858
-0.00204690382161
0.000642074360211
-0.00203112976257
0.000510407519468
-0.00200697863183
0.000400186912361
-0.0019791149505
0.000309619769855
-0.00195037940983
0.000235969968888
-0.00192230724828
0.000176336386952
-0.00189557198831
0.000128130765608
-0.00187039209104
8.92172246872e-05
-0.0018468099639
5.78806582157e-05
-0.00182483454722
3.27486095146e-05
-0.00180447438466
1.27249908273e-05
-0.0017857425571
-3.09010528854e-06
-0.00176863681842
-1.54544206556e-05
-0.00175313437315
-2.50250035926e-05
-0.00173918577054
-3.23729665271e-05
-0.00172672240978
-3.79989494493e-05
-0.00171566478625
-4.23279283016e-05
-0.00170594004025
-4.57178089475e-05
-0.00169745830879
-4.85049221896e-05
-0.0016901133221
-5.0983760121e-05
-0.00168378353241
-5.34108169268e-05
-0.00167834160319
-5.6006745281e-05
-0.00167364670952
-5.90711643159e-05
-0.00166957069803
-6.29507287832e-05
-0.00166555794954
-6.82763420546e-05
-0.00166034426507
-7.57006284322e-05
-0.00165303514023
-8.43794408659e-05
-0.00164354006961
-9.5608891757e-05
-0.00163085753868
-0.000109736383157
-0.00161441756688
-0.000127553847029
-0.00159361996374
-0.000150067795017
-0.00156761202848
-0.000178284706492
-0.00153551782836
-0.000213470956148
-0.00149656567129
-0.000257170838642
-0.00145009649383
-0.000310925626028
-0.0013954029953
-0.000375834423687
-0.00133124172354
-0.000451928958412
-0.00125507288492
-0.000537262854828
-0.00116297617907
-0.000626615826922
-0.0010518780716
-0.000710563566865
-0.000923904949232
-0.000777425359055
-0.00078883999117
-0.00081944339326
-0.000659308390609
-0.000839425187761
-0.000542553711899
-0.000841942299388
-0.000442131551581
-0.00080595165776
-0.000372588349351
-0.000664261560796
-0.00028331883361
-0.000460433733577
-3.54076571134e-05
-0.000557543279244
0.000259844207535
-0.00106498549039
0.000347284922767
-0.00132604117369
0.000331460764961
-0.00109581300857
0.000342780501732
-0.000831108680482
0.000356385929637
-0.000667913289444
0.000380285805959
-0.000540796713635
0.000411375126364
-0.000445615823242
0.000442432274289
-0.000363775478276
0.000467618225138
-0.000287132099649
0.000484925190733
-0.000210825648834
0.000494159074346
-0.00013405518963
0.000495544260547
-5.62333233636e-05
0.000489330135435
2.15469872581e-05
0.000475177630875
9.88045206573e-05
0.000452315699437
0.00017543075804
0.000419727193977
0.000250765065188
0.000376402770072
0.000323689189812
0.000321716257724
0.000393567668206
0.000254970146755
0.000460842715995
0.000173147482351
0.000517154756083
7.49859898633e-05
0.000525846133285
-8.47758428894e-06
0.000529695435302
0.00126255082567
-3.2198242347e-05
0.00225437547993
-0.000486540911976
0.00079411330475
-0.00107264844892
0.00180338413993
-0.0014392897252
0.00178729883051
-0.00167212184341
0.00163363526797
-0.00180240794099
0.0014261057016
-0.00185561705347
0.0011929389736
-0.00185960672459
0.000968672431559
-0.00183617116797
0.000771301998954
-0.00179955645837
0.000605275386414
-0.00175855341077
0.00046928318069
-0.00171832192299
0.000359885584939
-0.00168156164907
0.000272830362305
-0.00164930871315
0.000203715524476
-0.00162155439275
0.000148599438342
-0.00159771635424
0.000104316887478
-0.001576986062
6.8513252379e-05
-0.00155859389315
3.95085426803e-05
-0.00154194258359
1.61108538125e-05
-0.00152664105747
-2.57490755881e-06
-0.00151245970269
-1.72819838153e-05
-0.00149927443248
-2.86644383156e-05
-0.00148701002974
-3.73281608662e-05
-0.00147561064055
-4.38253652447e-05
-0.00146500880599
-4.86677760936e-05
-0.00145513890137
-5.22796454973e-05
-0.00144593514005
-5.50195033975e-05
-0.00143736455961
-5.71918492126e-05
-0.00142934877836
-5.91367343088e-05
-0.00142175364555
-6.11682930999e-05
-0.00141426228811
-6.36893812765e-05
-0.00140661516572
-6.69450009227e-05
-0.00139866328332
-7.11708712974e-05
-0.00139060916022
-7.66486284672e-05
-0.00138288173573
-8.38041449874e-05
-0.00137504952621
-9.26528701483e-05
-0.0013673391829
-0.000103833767741
-0.00135966771574
-0.000117998100621
-0.00135183244694
-0.000136058484429
-0.00134329159606
-0.000159350579563
-0.00133275527426
-0.000189628122455
-0.00131795966801
-0.000229121036524
-0.00129562576992
-0.000280384005478
-0.00126178498884
-0.000345644816864
-0.0012127471149
-0.000425718545601
-0.00114660655661
-0.000518862216634
-0.00106405651952
-0.000620529999221
-0.000967390477602
-0.000723915340906
-0.000858856674295
-0.000819641265586
-0.000740878323976
-0.000895856259233
-0.000619541834331
-0.000941151588156
-0.000503511216075
-0.000955772816142
-0.000400884486761
-0.000944853013212
-0.000326407149757
-0.000880693400022
-0.000274972394944
-0.000715932602601
-0.00014062030137
-0.000594971755283
0.00013596476504
-0.000834254679326
0.000348325198647
-0.00127741067986
0.000363344229927
-0.00134106985437
0.000337269245812
-0.00106970195332
0.000341552784852
-0.000835323305928
0.000355436263263
-0.000681704571646
0.000379193976713
-0.000564447171208
0.000404748926255
-0.000471051928419
0.000426840276782
-0.00038573950493
0.000443056287429
-0.000303213522269
0.00045339958146
-0.000221019024204
0.000458344353601
-0.000138850138089
0.000458132561626
-5.58855754561e-05
0.00045272079268
2.70801590229e-05
0.000441482755233
0.000110151486157
0.000423428768319
0.000193582358444
0.000397228857376
0.000277054537363
0.000361378048097
0.000359617805586
0.000314526842388
0.00044049434904
0.000255352569399
0.000520081179413
0.000180554937572
0.000592016090083
8.54376372038e-05
0.00062101197242
-9.79361050364e-06
0.00062498108134
0.00125278681536
-3.16915105962e-05
0.0022843382373
-0.000637291168308
0.00139819625697
-0.0011963698588
0.00236125806101
-0.0014712280949
0.00206124480565
-0.00162083468455
0.00178251253775
-0.00167748124189
0.00148216293401
-0.00167346783869
0.00118845274864
-0.0016377989568
0.00093262872492
-0.00158923225457
0.000722448613227
-0.0015387003124
0.000554530929232
-0.00149239047622
0.000422821998706
-0.00145337273639
0.000320764171257
-0.00142260042453
0.000241987328427
-0.00139959019286
0.000180655713186
-0.00138305018583
0.000132017389534
-0.00137132452328
9.25478243417e-05
-0.00136273141862
5.98657621438e-05
-0.00135583864655
3.25479886634e-05
-0.00134963530659
9.82168982049e-06
-0.00134354470694
-8.77117669385e-06
-0.00133733946127
-2.36166081539e-05
-0.00133101469853
-3.51432683483e-05
-0.00132466962788
-4.38516915635e-05
-0.00131842493355
-5.02680367101e-05
-0.00131238478895
-5.49218619038e-05
-0.00130657598972
-5.83152910275e-05
-0.00130101963357
-6.08133805693e-05
-0.00129574275158
-6.27176009799e-05
-0.00129074585724
-6.439538266e-05
-0.001285943106
-6.62504540811e-05
-0.00128121491739
-6.87193857787e-05
-0.0012763558247
-7.21362184628e-05
-0.00127099683753
-7.68990120297e-05
-0.00126471024699
-8.33517584104e-05
-0.0012571706441
-9.18125163992e-05
-0.00124789320003
-0.000102460637722
-0.00123664436791
-0.000115673961031
-0.00122327809854
-0.000132020656339
-0.00120770675973
-0.000152342781518
-0.00118984299399
-0.000177977909437
-0.00116934194775
-0.00021092664069
-0.00114525787865
-0.000254017268743
-0.0011156233872
-0.000310823294349
-0.00107718328156
-0.000384854096845
-0.0010258077024
-0.000477809213959
-0.000958218283317
-0.00058709148565
-0.000874117831261
-0.000705191503106
-0.000776532766526
-0.00082197953527
-0.000670375082405
-0.000926203882661
-0.000560457514685
-0.00100612006238
-0.000452684874852
-0.00104923555749
-0.000353912701907
-0.00105483697477
-0.000275922251993
-0.00102312747311
-0.000229827350594
-0.000927049090684
-0.000167588030759
-0.000778389655872
1.51422862526e-05
-0.000777871922885
0.00027169772091
-0.00109092989374
0.000394005719264
-0.00139979088435
0.0003677253475
-0.00131481871811
0.00033971267243
-0.00104168410683
0.000339492158284
-0.000835070740756
0.000350617151211
-0.000692778440513
0.000368266550407
-0.00058203070057
0.000384865854648
-0.000487574539177
0.000397673487228
-0.000398459540405
0.00040619922089
-0.000311638789291
0.000411131823037
-0.000225844699819
0.000413020678109
-0.000140620613193
0.000411967623537
-5.47242570784e-05
0.000407867367603
3.12788382283e-05
0.000399869273172
0.000118240165906
0.000386770205409
0.000206765535148
0.000367005059853
0.000296896597693
0.000338735080709
0.000387961300157
0.000300084612532
0.000479210038523
0.000249286121702
0.000570944587498
0.000182846276433
0.000658514697802
9.32474052787e-05
0.000710668280453
-1.00798503835e-05
0.000728359824757
0.0012427407248
-4.72039381456e-05
0.00232889590226
-0.000742917027719
0.0020920898012
-0.00122443578196
0.00284147538026
-0.00140614453438
0.00224193387356
-0.00149030408384
0.00186587070785
-0.00149646613937
0.00148767501162
-0.00146016510087
0.00115161965493
-0.00140741335503
0.000879443615753
-0.00135265311421
0.000667335844475
-0.00130380152204
0.000505395331226
-0.00126497468256
0.000383764560326
-0.00123761055494
0.000293208699335
-0.00122134849654
0.000225558700408
-0.00121454345662
0.000173694536612
-0.00121487705263
0.000132191736604
-0.00121972601938
9.72244338018e-05
-0.00122652897422
6.64782358108e-05
-0.00123320192254
3.90097565762e-05
-0.00123839791438
1.47819049742e-05
-0.00124150769795
-5.92776944988e-06
-0.00124249993707
-2.29270992542e-05
-0.00124169286834
-3.62924086387e-05
-0.00123942191401
-4.64929476363e-05
-0.00123604521048
-5.40359085274e-05
-0.00123194618807
-5.94204789141e-05
-0.00122745842026
-6.3207035608e-05
-0.00122292678983
-6.57489248558e-05
-0.00121851111273
-6.75359227146e-05
-0.0012142313848
-6.90803295191e-05
-0.00120996855218
-7.09252431911e-05
-0.00120547151125
-7.36445938113e-05
-0.00120026498318
-7.77931832396e-05
-0.00119380392894
-8.38447361082e-05
-0.00118554498931
-9.21333111453e-05
-0.00117506483327
-0.000102864100852
-0.00116201609878
-0.000116127450005
-0.00114624568817
-0.000132114753916
-0.00112770819134
-0.000151271991408
-0.00110632948547
-0.000174475418739
-0.00108183118909
-0.000203254369207
-0.00105350775517
-0.00024003839643
-0.00101996198484
-0.000288341139002
-0.000978883722844
-0.000352644447134
-0.000927238342769
-0.000437185798774
-0.000862134743191
-0.000543520388375
-0.000782717594026
-0.000667031642395
-0.00069113117513
-0.000797217259416
-0.000591673646098
-0.000921810044279
-0.000489692539667
-0.00102850918901
-0.000389888698546
-0.00110622123987
-0.000297856506596
-0.00114154874391
-0.000221577364525
-0.00113138875695
-0.000173091006239
-0.00107186058347
-0.000138449031458
-0.000961901825958
-4.39657664103e-05
-0.000873047913485
0.000160821734029
-0.000982797004745
0.000360656065809
-0.00129086534678
0.000406689694861
-0.00144589163713
0.000361488062953
-0.00126965462197
0.000334236474649
-0.00101444480396
0.000329947595721
-0.000830774295447
0.000335304603058
-0.00069811171994
0.000343799127294
-0.000590489011167
0.000350353445452
-0.000494080894766
0.000354134239111
-0.000402181731374
0.00035567869118
-0.000313114626253
0.00035593312111
-0.00022601209496
0.000355426777603
-0.000140023387082
0.000354300672876
-5.35126466327e-05
0.000352191340823
3.34688753278e-05
0.000347947499689
0.000122560422061
0.000340171149381
0.000214614367067
0.000327148844061
0.000309988494665
0.000306850625962
0.00040832455813
0.000277086258795
0.000509038029485
0.000235758807694
0.000612332457374
0.00017922254616
0.000715111172211
9.75725952548e-05
0.000792373018124
-9.85569099534e-06
0.000835848272015
0.00123291910498
-6.9700004683e-05
0.00239669293851
-0.000806020466531
0.0028268475101
-0.00118147532583
0.00321564762398
-0.00128557988721
0.00234504096893
-0.001325287436
0.00190475513385
-0.00130135275372
0.00146305578924
-0.00125174244379
0.00110142898834
-0.00119707696373
0.000824280486437
-0.00114770612494
0.000617537782421
-0.0011093306242
0.000466647878658
-0.00108462473847
0.000358730274246
-0.00107393606205
0.000282219623181
-0.00107608217602
0.000227418025575
-0.00108859748816
0.000185920034761
-0.00110834165634
0.000151631972137
-0.00113166663172
0.000120219718625
-0.0011549324331
8.9385505703e-05
-0.00117528137329
5.8966829454e-05
-0.00119108564828
3.01618073429e-05
-0.00120188956329
4.40190170052e-06
-0.00120814533208
-1.71965133314e-05
-0.00121071156226
-3.42888119012e-05
-0.0012107096102
-4.70713065475e-05
-0.00120885629889
-5.64680683536e-05
-0.00120572500038
-6.31227456482e-05
-0.00120185164428
-6.76408085011e-05
-0.00119770265341
-7.04453828624e-05
-0.00119364126812
-7.21339448477e-05
-0.0011897908813
-7.34586203781e-05
-0.0011859111668
-7.53322466512e-05
-0.00118137884708
-7.87104220679e-05
-0.00117528580048
-8.44391605545e-05
-0.0011666142742
-9.30937955062e-05
-0.00115445195777
-0.000104908584147
-0.00113816704813
-0.000119796733726
-0.00111749711741
-0.000137484075414
-0.00109256083949
-0.000157769770639
-0.00106374994045
-0.000180830092833
-0.0010314802138
-0.000207509394422
-0.000995884155686
-0.00023962220578
-0.000956410975108
-0.000280274969762
-0.000911339030298
-0.000334147635743
-0.000857562590404
-0.000407108957857
-0.000791214033427
-0.000504150826753
-0.000709867293319
-0.000625402948502
-0.000616078995654
-0.000761269458532
-0.00051649667481
-0.000897177594252
-0.000417134465098
-0.00102149665345
-0.00032169691431
-0.00112423847301
-0.000234454487786
-0.00119373366921
-0.000163402171671
-0.00121285029185
-0.000116158440474
-0.00117885208763
-8.81400864964e-05
-0.00110007036109
-4.24778089394e-05
-0.00100772817314
8.3075405572e-05
-0.000998737872889
0.000276699744486
-0.00117653173307
0.000405131704168
-0.00141938274724
0.000397334275412
-0.00143815671037
0.000345719697118
-0.00121808163269
0.000318411856491
-0.000987160496896
0.00030882595116
-0.000821196244025
0.000306022375796
-0.000695303098283
0.00030415842483
-0.000588608252442
0.000300744345681
-0.000490639520934
0.000296267533644
-0.000397665814312
0.000291875098023
-0.000308669041524
0.000288562829373
-0.000222638332586
0.000286731785335
-0.000138117866569
0.000286386487532
-5.30969018371e-05
0.000286788450909
3.31344389596e-05
0.000286611199023
0.000122803304136
0.00028426691034
0.00021702261654
0.000277983646757
0.000316333804947
0.000265703491822
0.000420665395996
0.000245120685694
0.000529679781937
0.000213978306944
0.000643532653034
0.000168531764799
0.000760614479103
9.70208588963e-05
0.000863940952277
-9.89058101055e-06
0.000942815319704
0.00122305516257
-9.78079315825e-05
0.0024926802853
-0.000835279841989
0.00356288304073
-0.0010917808022
0.00347103242212
-0.00114288183741
0.00239519334381
-0.00115725323953
0.00191833241152
-0.00111871922243