/*--------------------------------*- C++ -*----------------------------------*\
| =========                 |                                                 |
| \\      /  F ield         | OpenFOAM: The Open Source CFD Toolbox           |
|  \\    /   O peration     | Version:  v1806                                 |
|   \\  /    A nd           | Web:      www.OpenFOAM.com                      |
|    \\/     M anipulation  |                                                 |
\*---------------------------------------------------------------------------*/
FoamFile
{
    version     2.0;
    format      ascii;
    class       surfaceScalarField;
    location    "100";
    object      phia;
}
// * * * * * * * * * * * * * * * * * * * * * * * * * * * * * * * * * * * * * //

dimensions      [0 3 -1 0 0 0 0];
oriented        oriented;


internalField   nonuniform List<scalar> 
12640
(
-0.000242856081709
0.00024398108298
-0.000527693100603
0.000286147825874
-0.000792565971828
0.000266551815338
-0.00120847003144
0.000417502262077
-0.0014959757001
0.000289180431222
-0.00158826789159
9.42568672224e-05
-0.00181530980362
0.000228862736117
-0.00196711191471
0.000153095534515
-0.00208091543046
0.00011488129342
-0.00217144741667
9.15076693709e-05
-0.00224275891997
7.21873779598e-05
-0.00229758681235
5.56585522673e-05
-0.00233850119122
4.17058639557e-05
-0.00236767714687
2.99751578676e-05
-0.00238695394877
2.00904318455e-05
-0.00239783158106
1.17379108351e-05
-0.00240159582244
4.67418218688e-06
-0.00239931686533
-1.29916907701e-06
-0.00239193133317
-6.33541143204e-06
-0.00238022565068
-1.05729528648e-05
-0.00236488476932
-1.41262320265e-05
-0.00234647230379
-1.71086731371e-05
-0.00232546823916
-1.96123090123e-05
-0.00230225824465
-2.1726264818e-05
-0.00227716879753
-2.35150030357e-05
-0.00225046285227
-2.50385959006e-05
-0.00222237123533
-2.63323175823e-05
-0.00219309281909
-2.74257716048e-05
-0.00216283900143
-2.83075667507e-05
-0.00213185579434
-2.8942103793e-05
-0.0021004788851
-2.92398755189e-05
-0.0020683368671
-2.9914126457e-05
-0.00203145357695
-3.45662173555e-05
-0.0019909996277
-3.80557021731e-05
-0.00194892181402
-3.96015606333e-05
-0.00190711531539
-3.92628286401e-05
-0.00186630664175
-3.82002493481e-05
-0.00182699728408
-3.66485184841e-05
-0.00178946107202
-3.48274519249e-05
-0.00175383406081
-3.28840659112e-05
-0.00172014374596
-3.0918598525e-05
-0.00168835710698
-2.89998530056e-05
-0.00165838465431
-2.71761343686e-05
-0.00163011365458
-2.54778263914e-05
-0.00160340043287
-2.39282501008e-05
-0.00157809635174
-2.25384428837e-05
-0.00155403666423
-2.13175770784e-05
-0.00153106421511
-2.02633570533e-05
-0.00150901702976
-1.93742765759e-05
-0.00148775012099
-1.86382472774e-05
-0.00146712164828
-1.80461731119e-05
-0.0014470133083
-1.75794200528e-05
-0.00142731501843
-1.72238780087e-05
-0.00140794433317
-1.6957175461e-05
-0.00138882898907
-1.67629763192e-05
-0.00136992513058
-1.66187743174e-05
-0.00135119673654
-1.65100480613e-05
-0.00133263243535
-1.64188219475e-05
-0.00131422146947
-1.63370594558e-05
-0.00129596929243
-1.6255973431e-05
-0.00127787023652
-1.61784280266e-05
-0.00125992194991
-1.61091352298e-05
-0.00124209500846
-1.60661709338e-05
-0.00122434586758
-1.60720915397e-05
-0.00120658405885
-1.61645945097e-05
-0.00118868389233
-1.63873584696e-05
-0.00117045261646
-1.67987899618e-05
-0.00115164219644
-1.74617331466e-05
-0.00113192072195
-1.84520000882e-05
-0.00111088386621
-1.98454751876e-05
-0.00108802886585
-2.17353636858e-05
-0.00106280428747
-2.41636378499e-05
-0.0010345791287
-2.72175668755e-05
-0.00100302083082
-3.05688623e-05
-0.00096730108203
-3.47808117167e-05
-0.000928081421462
-3.82580538989e-05
-0.000875842178748
-5.13145704716e-05
-0.000807324230672
-6.76577838188e-05
-0.000552029122708
-0.000253091558187
-0.000551172732913
-0.000205118159643
0.000451063063714
-0.000592040342946
0.000675827160074
-0.000932648946849
0.000609812467625
-0.00122933203347
0.000716172890626
-0.00158689119399
0.00064792740493
-0.00203383722119
0.000541908455184
-0.00228402713165
0.00047954055033
-0.00254440621848
0.000413850743311
-0.00278792833162
0.000358737283823
-0.00300833999651
0.000312213333956
-0.00320718430186
0.000271291997969
-0.00338531373344
0.00023402969142
-0.00354315315146
0.000199769176527
-0.00368133525531
0.000168393827145
-0.00380083929407
0.000139839238915
-0.00390281017919
0.000113994775801
-0.00398849231689
9.06723167061e-05
-0.00405908631473
6.96716000914e-05
-0.00411576618452
5.0766020621e-05
-0.00415959410136
3.37490257611e-05
-0.00419157258743
1.84002604705e-05
-0.00421258061298
4.52614257859e-06
-0.00422343515485
-8.07172029632e-06
-0.00422483838884
-1.95553524423e-05
-0.00421744199923
-3.00814099435e-05
-0.00420180316289
-3.97648099094e-05
-0.00417844728281
-4.87111518852e-05
-0.00414783003702
-5.69831438675e-05
-0.00411037716418
-6.46334003675e-05
-0.00406647427661
-7.16344044908e-05
-0.00401665868087
-7.77783202251e-05
-0.00396374489194
-8.14732392336e-05
-0.00391250913207
-8.43872045375e-05
-0.00385598677097
-9.31018539631e-05
-0.0037918406171
-0.000102223117789
-0.00372033080864
-0.000109200097186
-0.00364207866525
-0.00011484073479
-0.00355769763898
-0.000119384477598
-0.00346794906497
-0.00012290282688
-0.00337365028036
-0.000125491817154
-0.00327561105234
-0.000127250121985
-0.00317463022342
-0.000128269943593
-0.00307146373844
-0.000128625956615
-0.00296684116596
-0.000128393702539
-0.00286142770911
-0.000127638516861
-0.00275584767623
-0.000126436057314
-0.00265064281589
-0.000124851480284
-0.0025463044685
-0.000122960197384
-0.00244323305978
-0.000120822258466
-0.00234177832246
-0.000118505897375
-0.00224220099608
-0.000116060048936
-0.00214471846857
-0.000113540360628
-0.00204946831171
-0.000110980866588
-0.00195655666557
-0.000108422064824
-0.00186602276304
-0.000105882765431
-0.00177788758765
-0.000103390094822
-0.00169211818237
-0.00010095201975
-0.00160867441114
-9.85886806612e-05
-0.00152747190818
-9.63053363232e-05
-0.00144842548101
-9.41242418126e-05
-0.00137141005462
-9.20578316739e-05
-0.00129629990892
-9.0140756476e-05
-0.00122292737884
-8.8403496242e-05
-0.0011511174137
-8.69042176878e-05
-0.00108064418546
-8.57031488769e-05
-0.00101125927197
-8.48933155116e-05
-0.000942645605934
-8.45758644223e-05
-0.000874435735254
-8.48876099247e-05
-0.000806163821326
-8.59803570961e-05
-0.000737272392308
-8.80386821184e-05
-0.000667073907621
-9.12665697009e-05
-0.000594769422909
-9.58310148465e-05
-0.000519443251417
-0.000101913836957
-0.000440199082406
-0.000109198471677
-0.000356165751313
-0.000118175117805
-0.000267318040591
-0.000126519399222
-0.000172791650797
-0.000145209839703
-7.83278600341e-05
-0.000161337172122
3.46028204006e-05
-0.000365402009841
-0.000515916633463
-0.000433557588922
0.000886459268372
-0.000874084677735
0.00111915821951
-0.00122763069303
0.00096481471211
-0.00139341841668
0.000882823635867
-0.0015461527904
0.000801215587825
-0.00171328311968
0.000709369014075
-0.00187705301876
0.000643469329079
-0.00205126787872
0.000588118286585
-0.00222536260659
0.000532819670555
-0.00238907939406
0.000475876859865
-0.00253690784531
0.000419036952819
-0.00266692815786
0.000363937555377
-0.0027789973973
0.000311709782639
-0.002873883021
0.000263133878044
-0.00295284818435
0.000218659172143
-0.00301740628129
0.000178405053656
-0.00306912335635
0.000142256767237
-0.0031095172621
0.000109942338821
-0.00313997489543
8.1126472577e-05
-0.00316174150982
5.54365349336e-05
-0.00317589585523
3.25084849968e-05
-0.00318337386057
1.19817886114e-05
-0.00318496130885
-6.46944690675e-06
-0.00318132602065
-2.31484793317e-05
-0.00317301530015
-3.83103720323e-05
-0.0031604902104
-5.21785487158e-05
-0.0031441246077
-6.4924686032e-05
-0.00312424071589
-7.66838906375e-05
-0.00310110271405
-8.75468928014e-05
-0.00307492385939
-9.75574720943e-05
-0.00304536875393
-0.000107038373061
-0.00300967227314
-0.000116851561822
-0.0029720777354
-0.00012163775698
-0.00293722540274
-0.000127596465223
-0.00290456865577
-0.000134506770673
-0.00287299499836
-0.000140393327403
-0.00284208683124
-0.00014536177728
-0.0028114359477
-0.00014964679946
-0.0027806515956
-0.000153300031934
-0.00274942341315
-0.000156336134846
-0.00271750769172
-0.00015878979629
-0.0026846996548
-0.000160708260759
-0.0026508232621
-0.000162144865356
-0.00261571971146
-0.000163147610522
-0.00257925453924
-0.000163768979972
-0.00254130695759
-0.000164057209342
-0.00250177944412
-0.000164068991775
-0.00246058251815
-0.000163855277586
-0.00241764587326
-0.000163474297934
-0.00237290093639
-0.00016297408484
-0.00232629474161
-0.000162407229898
-0.00227777194773
-0.000161811705801
-0.00222729194152
-0.000161227507899
-0.00217481135783
-0.000160676576072
-0.00212030463586
-0.000160181692842
-0.0020637472945
-0.000159746564754
-0.00200513902146
-0.000159377611677
-0.00194448614486
-0.000159065139883
-0.00188182433607
-0.000158808310303
-0.0018171969675
-0.00015859780496
-0.0017506735838
-0.000158443502266
-0.00168232118115
-0.00015835827273
-0.00161221605056
-0.000158387027438
-0.00154040729224
-0.000158590756342
-0.00146692189306
-0.000159075421085
-0.00139172161566
-0.000159975588581
-0.00131470134069
-0.000161482133628
-0.00123563965467
-0.00016382607444
-0.00115418737211
-0.000167307218828
-0.00106981011131
-0.000172274536294
-0.000981753032063
-0.000179169314764
-0.000888954168574
-0.000188446059316
-0.000789933284553
-0.000200727138105
-0.000682706487011
-0.000216165711848
-0.000564719401346
-0.000235893690571
-0.000434093474884
-0.00025682393509
-0.000290143084875
-0.000288871302345
-0.000145610171229
-0.000305701767284
-1.11908227093e-05
-0.000499088490577
-0.000527137113432
-0.00146424735324
0.00235403089357
-0.00158040326732
0.00123704142031
-0.00144264597831
0.000827865016362
-0.00143262396525
0.000873301426456
-0.00151227864181
0.000881171998486
-0.00166223331044
0.000859445373766
-0.00184747726196
0.000828692429697
-0.0020398498246
0.000780372029891
-0.00222184953134
0.000714640260658
-0.00238525954259
0.000639066017066
-0.00252747229275
0.000560991242837
-0.00264896123115
0.00048513692837
-0.00275163083837
0.000414054198921
-0.00283784071894
0.000348991946428
-0.00290996278901
0.000290397391577
-0.00297017295447
0.000238210979313
-0.00302039488988
0.000192048028416
-0.00306225765324
0.000151360412984
-0.00309711999125
0.000115523332149
-0.00312607199568
8.39144209639e-05
-0.00314998651037
5.59329358021e-05
-0.00316953337595
3.1034119257e-05
-0.00318523237617
8.72292224728e-06
-0.00319746338285
-1.14254929891e-05
-0.00320651190785
-2.9779094341e-05
-0.00321257060691
-4.66365824099e-05
-0.00321577900796
-6.2240566854e-05
-0.00321620346049
-7.67826829071e-05
-0.0032139025162
-9.03776773886e-05
-0.00320883452289
-0.000103155157832
-0.00320157285794
-0.000114843145767
-0.00319247732953
-0.000126498979983
-0.00317509705667
-0.000139586077158
-0.00315159773823
-0.000151677264832
-0.00312308665304
-0.000163619079012
-0.00308945874408
-0.000174640844457
-0.0030511018605
-0.000184359696581
-0.00300861653345
-0.000192794248646
-0.00296258800084
-0.000200011383435
-0.00291356902499
-0.000206059098392
-0.00286208626308
-0.000210994135241
-0.00280863534165
-0.000214899664492
-0.00275365767884
-0.000217875751689
-0.0026975367336
-0.000220036821551
-0.00264058241991
-0.000221498583296
-0.00258304195594
-0.000222383416689
-0.00252508916516
-0.000222808760169
-0.00246684236586
-0.000222894904189
-0.00240835447447
-0.000222750885649
-0.0023496354651
-0.000222483392725
-0.00229064268555
-0.000222181373175
-0.00223130660271
-0.00022192690507
-0.00217152056444
-0.000221779358816
-0.00211116860545
-0.000221788466477
-0.0020501140307
-0.000221978703265
-0.00198822840347
-0.00022236505712
-0.00192537854343
-0.00022293857151
-0.00186145578859
-0.000223685420321
-0.00179636059804
-0.000224574711393
-0.00173003009834
-0.000225581386429
-0.00166241817461
-0.000226677147227
-0.00159351788295
-0.000227856756667
-0.00152333427268
-0.000229131706779
-0.001451898259
-0.000230557891261
-0.00137923089709
-0.000232230428097
-0.00130534765056
-0.000234309564135
-0.0012302164972
-0.000237014475818
-0.00115375580591
-0.000240644359692
-0.00107579167639
-0.000245574090856
-0.000996053782762
-0.000252264313017
-0.00091412926022
-0.000261283498919
-0.000829442232558
-0.000273265043151
-0.000741127407194
-0.000289103210986
-0.000647973138409
-0.000309332082136
-0.000548008455167
-0.000335796896403
-0.000439363325038
-0.00036540464533
-0.000319340019879
-0.000408801039449
-0.000194318466639
-0.000430470912488
-5.80222856131e-05
-0.000635562006227
-0.000585067476115
-0.00181759399624
0.00417269595357
-0.00123087047697
0.000651014386007
-0.00108106377721
0.000678514232868
-0.00120208326819
0.00099460770392
-0.001410969785
0.00109020579659
-0.00164582676362
0.00109433449462
-0.00187027097728
0.00105307342391
-0.00206468370653
0.000974656018935
-0.00222451306837
0.000874295632157
-0.00235273608759
0.000767081920983
-0.00245435486222
0.000662374813357
-0.00253436040283
0.000564875617625
-0.00259718442768
0.000476580925587
-0.00264652488059
0.000397997692899
-0.0026853209955
0.000328824901127
-0.00271585434269
0.000268335303749
-0.00273986368413
0.000215613863199
-0.00275867070094
0.000169683744464
-0.00277325921012
0.00012959526644
-0.00278435925364
9.44599040047e-05
-0.00279249331213
6.34822261442e-05
-0.00279803637607
3.5957441251e-05
-0.00280124254128
1.12820659815e-05
-0.00280228733883
-1.10597128482e-05
-0.0028012786387
-3.14917044753e-05
-0.00279828554002
-5.03634992333e-05
-0.00279333627162
-6.79476380931e-05
-0.00278643932032
-8.44663253136e-05
-0.0027775566733
-0.000100071496385
-0.00276660188181
-0.00011495221129
-0.00275317316336
-0.000129143379592
-0.00273860302205
-0.000141975439973
-0.00272435792842
-0.000154763586488
-0.00270984042416
-0.000167157055307
-0.00269528961391
-0.000179160956046
-0.00268032538816
-0.000190625962703
-0.00266443775148
-0.000201296991491
-0.00264723540467
-0.000211073570709
-0.0026284047103
-0.00021994531035
-0.00260767932433
-0.000227910329503
-0.0025848534461
-0.000234967505332
-0.00255978939352
-0.00024112753232
-0.00253242006938
-0.000246424567474
-0.00250273366546
-0.000250911943505
-0.00247076640064
-0.000254663693555
-0.0024365830998
-0.00025776656445
-0.00240027139188
-0.000260322908053
-0.00236192207151
-0.000262441720568
-0.00232162588445
-0.000264240916878
-0.00227945558683
-0.000265836009944
-0.00223546754143
-0.000267342104167
-0.00218968753488
-0.000268861718126
-0.00214211820147
-0.000270487949787
-0.00209272893302
-0.000272292781422
-0.00204146858853
-0.000274332501025
-0.00198825869325
-0.000276637782659
-0.00193300992455
-0.000279222347129
-0.00187561725644
-0.000282076062375
-0.00181597827116
-0.000285177533862
-0.00175398887507
-0.000288491324862
-0.00168956129056
-0.00029198480659
-0.00162261866055
-0.000295630092795
-0.00155310967541
-0.000299424538033
-0.00148099946382
-0.000303396670403
-0.00140627715882
-0.000307628189045
-0.00132894032071
-0.000312261347972
-0.00124899447379
-0.000317516950828
-0.00116643432124
-0.000323697241952
-0.00108124058637
-0.000331198775122
-0.000993372552874
-0.000340496764263
-0.000902782386916
-0.000352173537942
-0.000809437580675
-0.000366840596639
-0.000713337437321
-0.000385374762364
-0.00061455023281
-0.000408221365794
-0.00051291503778
-0.000437501135015
-0.000408385155535
-0.000469943181159
-0.000298754528655
-0.000518441528338
-0.000187963750988
-0.000541437938608
-5.72084505762e-05
-0.000766188972089
-0.000642453466558
-0.000476175102113
0.00465024175819
-0.000333512825009
0.000508791777132
-0.000709753727683
0.00105496520544
-0.0011213381085
0.00140630484923
-0.00146448227278
0.00143339561782
-0.00174075418785
0.00137059029364
-0.00195132226516
0.00126357852688
-0.00210447650348
0.00112771142844
-0.00221366522484
0.000983362781567
-0.00229136742636
0.000844644338598
-0.00234701204883
0.000717860482068
-0.00238731236944
0.000604995175748
-0.00241700053281
0.000506059027734
-0.00243937379789
0.000420129060985
-0.00245669439435
0.000345864133185
-0.00247048531934
0.000281805666847
-0.00248176398752
0.000226526840912
-0.00249119542463
0.000178707224499
-0.00249920893751
0.000137154238895
-0.00250606437422
0.000100818716611
-0.00251191234085
6.87882060546e-05
-0.00251682460982
4.02875613902e-05
-0.00252083047055
1.46627587697e-05
-0.00252392958235
-8.6237089488e-06
-0.00252611285913
-3.00124539894e-05
-0.00252736492339
-4.98522274139e-05
-0.00252766928093
-6.8424037611e-05
-0.00252701560685
-8.59377932102e-05
-0.00252536576883
-0.000102578604605
-0.00252274800899
-0.00011846632425
-0.00251902052429
-0.000133811766699
-0.00251284004385
-0.000149132076349
-0.00250449745123
-0.000164112271058
-0.00249409550606
-0.0001785945565
-0.00248181761911
-0.00019250324881
-0.00246782643827
-0.000205709431073
-0.00245218870139
-0.000218052559391
-0.00243497209516
-0.000229432391953
-0.00241626055993
-0.000239819871884
-0.00239613129709
-0.000249222159954
-0.0023746391353
-0.000257657415982
-0.00235182042644
-0.00026515793605
-0.00232769327653
-0.000271772559178
-0.0023022623928
-0.000277571740837
-0.00227551569762
-0.000282642330343
-0.00224742875648
-0.000287087617675
-0.00221796171808
-0.000291020981211
-0.00218706451604
-0.000294566209524
-0.00215467283475
-0.000297850611364
-0.00212071294533
-0.000301004056166
-0.00208509706413
-0.000304150373126
-0.00204772941801
-0.000307405379019
-0.00200850283923
-0.000310867823824
-0.00196730731215
-0.000314618207105
-0.0019240283091
-0.000318711339418
-0.00187855716025
-0.000323178013016
-0.00183078978851
-0.000328021380409
-0.00178063627807
-0.000333223270764
-0.00172801722582
-0.000338746055429
-0.0016728691493
-0.000344544344127
-0.00161513627289
-0.000350572532515
-0.00155477024021
-0.000356800768324
-0.0014917178816
-0.00036322662374
-0.00142591686897
-0.00036989247629
-0.00135728306724
-0.000376898201378
-0.0012857048862
-0.000384417325113
-0.00121103708717
-0.000392702827388
-0.00113310181876
-0.000402091039496
-0.00105169322387
-0.00041300809372
-0.000966600952434
-0.00042593128039
-0.000877651537143
-0.000441409392448
-0.000784780010073
-0.000459944184503
-0.000688113959828
-0.000482221148862
-0.000588148067646
-0.000508330690895
-0.000485517267974
-0.000540228774642
-0.000381483706152
-0.000574062136491
-0.000275116438305
-0.000624877732181
-0.000171775999352
-0.000644759916353
-4.76410190828e-05
-0.00089065022605
-0.000690172638889
-9.07558008877e-05
0.00474055604671
-0.000264104905366
0.00068200385118
-0.000862720041731
0.00165353796716
-0.0013197906876
0.00186334485549
-0.0016329436323
0.00174650969946
-0.0018464853995
0.00158408258471
-0.00198418856251
0.00140121783836
-0.00206881249047
0.00121226301423
-0.00211991444178
0.00103438518103
-0.00215081983517
0.000875464176736
-0.00216978967335
0.000736735688852
-0.00218188149956
0.000616977463324
-0.00219017415373
0.000514221925353
-0.00219649603121
0.000426293289976
-0.00220188013136
0.00035105911914
-0.00220686499167
0.000286563761057
-0.00221168207945
0.000231078883533
-0.00221638198251
0.00018309972156
-0.00222090705877
0.000141331310016
-0.00222514595264
0.000104666454852
-0.00222896131574
7.21723584182e-05
-0.0022322170412
4.30702175427e-05
-0.00223478806751
1.6722266187e-05
-0.00223657433898
-7.38910373232e-06
-0.00223749988483
-2.96759165945e-05
-0.00223751820978
-5.04621485473e-05
-0.00223660353458
-7.00044269026e-05
-0.00223475493013
-8.84906770358e-05
-0.00223197669025
-0.000106099516492
-0.00222831675457
-0.000122909657977
-0.00222383474697
-0.000139114449896
-0.00221909126481
-0.000154723634663
-0.00221417702634
-0.000169896809857
-0.00220900024497
-0.00018466149694
-0.00220344916963
-0.000198963971238
-0.00219735543284
-0.000212728953672
-0.0021904943669
-0.000225855187506
-0.00218263259215
-0.000238247797313
-0.00217357293445
-0.000249844914629
-0.00216315907492
-0.000260609541301
-0.00215127452995
-0.000270523360461
-0.00213783536531
-0.000279583078036
-0.00212278976807
-0.00028780846289
-0.00210610923932
-0.000295243914556
-0.00208778294548
-0.000301961251368
-0.00206780595079
-0.000308055351455
-0.00204617285749
-0.00031364228711
-0.00202286815912
-0.000318853579749
-0.00199786217341
-0.00032383262476
-0.00197110450658
-0.000328727719975
-0.00194252300973
-0.000333686145633
-0.00191202130228
-0.000338845776758
-0.00187948200633
-0.000344327946373
-0.00184476928235
-0.000350229656114
-0.00180773671592
-0.000356617843581
-0.001768234531
-0.000363525093155
-0.00172612071809
-0.000370948331031
-0.00168127037821
-0.000378851198492
-0.00163358592717
-0.00038717017392
-0.00158300309377
-0.000395825932444
-0.001529493505
-0.000404738110251
-0.00147306076853
-0.000413844711314
-0.00141372974928
-0.000423122560315
-0.00135152978372
-0.000432610168712
-0.00128647308603
-0.000442423854552
-0.00121852891911
-0.000452783452128
-0.00114760360554
-0.000464000950652
-0.00107353571748
-0.0004764890062
-0.000996084045685
-0.000490743555425
-0.00091497562205
-0.000507286495341
-0.000829946596771
-0.000526644530204
-0.000740851563761
-0.00054921502882
-0.000647779890861
-0.000575438858765
-0.000551273887033
-0.000604960052048
-0.000452203596222
-0.000639410835965
-0.000352326945538
-0.000674023157546
-0.00025154737949
-0.000725729518343
-0.000157382928164
-0.000739140799989
-4.0912837613e-05
-0.00100722679015
-0.000731238588031
2.2217595765e-07
0.00474004821258
-0.000427388317609
0.00110937915838
-0.00109240466402
0.00231836594083
-0.00148127960506
0.00225208679386
-0.00170795598821
0.00197308817808
-0.00184052053921
0.00171656700342
-0.00191079024466
0.0014714204798
-0.00194440740538
0.0012458194143
-0.00195900491328
0.00104892808811
-0.00196449738924
0.000880904110151
-0.00196614503398
0.000738329481484
-0.00196674337947
0.000617514664328
-0.00196770825799
0.000515112188801
-0.00196964775352
0.000428138982265
-0.00197270507579
0.00035399772059
-0.00197676592232
0.00029047769318
-0.00198158443331
0.000235718524338
-0.00198685691565
0.000188160768717
-0.00199227065179
0.000146499019442
-0.00199753077855
0.000109647121047
-0.00200238028314
7.67078354693e-05
-0.00200660704411
4.69502204925e-05
-0.00201005022161
1.97849799498e-05
-0.00201259703124
-5.25485275013e-06
-0.00201418196267
-2.85368039831e-05
-0.00201477832105
-5.03439737841e-05
-0.00201439594015
-7.08983032354e-05
-0.00201307445772
-9.03568343463e-05
-0.00201087703896
-0.0001088744813
-0.00200790993952
-0.00012648680107
-0.00200418819049
-0.000143477551099
-0.00199979984373
-0.00015976885234
-0.00199494575197
-0.000175418550474
-0.00198977965661
-0.00019050567228
-0.00198439786008
-0.000205030685532
-0.00197883766437
-0.000218980620855
-0.00197306084547
-0.000232326396108
-0.00196696995056
-0.000245036037936
-0.00196042945861
-0.000257082637653
-0.00195328665363
-0.000268449848054
-0.0019453788777
-0.0002791266955
-0.00193654481385
-0.000289111377324
-0.00192663071767
-0.000298414080167
-0.00191549878726
-0.000307065248272
-0.00190302838817
-0.000315118049421
-0.00188911610447
-0.000322651250542
-0.00187367083957
-0.000329767553589
-0.00185660836017
-0.000336591942142
-0.00183784421535
-0.000343267360966
-0.00181728685265
-0.000349948918809
-0.00179483208219
-0.000356796256157
-0.00177035862917
-0.00036396360382
-0.0017437275755
-0.000371590135309
-0.00171478308396
-0.000379788768156
-0.00168335835866
-0.000388638205663
-0.00164928180022
-0.000398174721744
-0.00161238842145
-0.000408390075426
-0.00157252914796
-0.000419230822019
-0.00152958395142
-0.000430606318404
-0.00148346942074
-0.000442399266263
-0.00143414693375
-0.000454486984108
-0.00138162111147
-0.000466761883174
-0.00132593550468
-0.000479166106413
-0.00126715288713
-0.000491713754224
-0.00120534248348
-0.000504522133425
-0.00114053131207
-0.000517846002509
-0.00107269676843
-0.000532056897811
-0.00100173391445
-0.000547641743192
-0.000927458245961
-0.000565186086556
-0.000849638224804
-0.000585249715425
-0.000768078163694
-0.000608331521395
-0.000682710573339
-0.000634693849004
-0.000593787325971
-0.000664468075918
-0.000502062315633
-0.000696788786089
-0.000408697408929
-0.000732880682269
-0.000315811247852
-0.000767006542865
-0.000223862037136
-0.000817782075691
-0.000141579103744
-0.00082149547754
-3.50037621303e-05
-0.00111406808948
-0.00076638424629
8.72236699651e-06
0.00473065810045
-0.000600631302383
0.00171827516207
-0.00124275074514
0.00296019310926
-0.00153089080838
0.00254002129032
-0.00167512381416
0.00211717251058
-0.00174540422318
0.00178673682513
-0.001772633182
0.00149856006217
-0.00177926567323
0.00125237885154
-0.00177792699535
0.00104752614866
-0.00177449492031
0.000877417190979
-0.00177165424284
0.000735437213869
-0.00177059124416
0.000616399804711
-0.00177167767739
0.000516140499282
-0.00177482099292
0.000431213359803
-0.00177968388249
0.000358776064322
-0.00178581801102
0.000296508251682
-0.00179274525107
0.000242520758726
-0.00180000709698
0.00019527432769
-0.00180719390905
0.000153513794113
-0.00181396194799
0.000116218374171
-0.00182003855556
8.25633666439e-05
-0.00182522234288
5.18876917985e-05
-0.00182937548861
2.36671130906e-05
-0.00183241607482
-2.51126511771e-06
-0.00183430670849
-2.69689741371e-05
-0.00183504612639
-4.99546096124e-05
-0.00183466398405
-7.16576927305e-05
-0.00183320835514
-9.22174021945e-05
-0.00183077480105
-0.000111741292637
-0.0018274669178
-0.000130257092329
-0.00182347016911
-0.000147955864124
-0.00181899819331
-0.000164729876079
-0.00181421138551
-0.000180699596783
-0.00180926470019
-0.000195948379091
-0.0018042637441
-0.000210528535675
-0.0017992609835
-0.000224477577538
-0.00179425705484
-0.000237821420205
-0.0017892018282
-0.000250576135137
-0.00178400739786
-0.00026275599436
-0.00177855456353
-0.00027437351842
-0.00177270280578
-0.000285442144756
-0.00176629447817
-0.000295975261562
-0.00175916482479
-0.000305992511514
-0.00175114792228
-0.000315524088922
-0.00174208438642
-0.000324617992193
-0.00173182354429
-0.000333343328226
-0.00172022442364
-0.000341793469352
-0.00170715280575
-0.00035008613188
-0.00169247678468
-0.000358361455436
-0.00167606140193
-0.000366777536946
-0.00165776268579
-0.00037550187954
-0.00163742438266
-0.000384701462186
-0.0016148753189
-0.000394528792396
-0.00158993236225
-0.000405109873985
-0.0015624040653
-0.000416529975715
-0.00153210066532
-0.000428825490442
-0.00149884303424
-0.000441975792766
-0.0014624763584
-0.000455905464331
-0.00142287971614
-0.000470487997959
-0.00137997766453
-0.000485563757489
-0.00133374153735
-0.000500959942088
-0.00128419463193
-0.000516522866765
-0.00123139504005
-0.000532152345886
-0.00117542621243
-0.000547846374291
-0.00111637382657
-0.000563711639604
-0.00105427615978
-0.000580058806959
-0.000989120730671
-0.000597307495158
-0.000920817097224
-0.000616024884441
-0.000849196645777
-0.0006368758136
-0.000774074151548
-0.000660431620925
-0.000695331657413
-0.000687133276024
-0.000613109955933
-0.000716978423549
-0.000528036883781
-0.000749613193304
-0.000441332421996
-0.000783585949131
-0.000354639313442
-0.000819674764139
-0.000270422579893
-0.000851335725348
-0.000189670329281
-0.000898617009317
-0.000121023869772
-0.00089032509045
-2.65522942198e-05
-0.00120877177582
-0.00079304416408
-1.26915153101e-05
0.00474269495644
-0.000761350722259
0.00246648973989
-0.00131649474396
0.00351499213695
-0.00149543561708
0.00271871415991
-0.00157527570646
0.00219682918452
-0.00160650099812
0.0018178191781
-0.00161277483748
0.0015047197301
-0.00161014992882
0.00124965659619
-0.0016058590309
0.00104315291109
-0.00160271560024
0.000874201443729
-0.00160187581601
0.000734534550115
-0.0016037064267
0.000618172006496
-0.00160808043089
0.000520458167898
-0.00161458243198
0.000437655898332
-0.00162265823027
0.000366786637996
-0.00163171972433
0.000305495018725
-0.00164120856153
0.000251923738807
-0.00165063637936
0.000204603205537
-0.00165960394687
0.000162368454243
-0.00166780749731
0.000124294123559
-0.00167503385799
8.96461443728e-05
-0.00168114854041
5.78423382719e-05
-0.00168608027074
2.84210488746e-05
-0.00168980370272
1.01582879493e-06
-0.00169232452385
-2.46646891586e-05
-0.00169366621799
-4.88503045275e-05
-0.00169386319596
-7.17205520047e-05
-0.00169295710621
-9.34067649313e-05
-0.00169100402952
-0.000114000309477
-0.00168804597542
-0.000133541401463
-0.00168422525566
-0.000152119864496
-0.00167964352155
-0.000169657308446
-0.00167448868012
-0.000186200710802
-0.00166896590473
-0.000201816653527
-0.00166326459889
-0.000216571731347
-0.00165754019851
-0.000230539031973
-0.00165189807696
-0.000243792829015
-0.00164638874293
-0.00025640637642
-0.00164100559135
-0.000268449388266
-0.0016356907679
-0.000279988173667
-0.00163033892421
-0.000291082260554
-0.00162480676401
-0.000301785213488
-0.00161892126749
-0.000312145373924
-0.00161249190759
-0.000322211926971
-0.00160531998769
-0.000332040402004
-0.00159720723261
-0.000341699998353
-0.00158796026348
-0.000351278923689
-0.00157739174729
-0.000360888394408
-0.00156531900318
-0.000370664021134
-0.00155155927341
-0.000380762707894
-0.00153592600386
-0.000391356347495
-0.001518223535
-0.000402619180687
-0.00149824702522
-0.000414714095489
-0.00147578246553
-0.000427774160325
-0.00145061479683
-0.00044188757175
-0.00142253542237
-0.000457082112576
-0.00139135764525
-0.000473317876008
-0.00135692720634
-0.000490484317926
-0.00131913854831
-0.000508410125942
-0.00127793997424
-0.000526877758999
-0.00123333987102
-0.000545659634205
-0.00118539724017
-0.000564546491275
-0.00113421013413
-0.000583404061047
-0.00107988184252
-0.000602221740229
-0.00102252773258
-0.000621094793626
-0.000962158969853
-0.000640443842483
-0.000898728694867
-0.000660744817903
-0.000832092615032
-0.000682667519721
-0.000762091284776
-0.000706884146397
-0.000688634861513
-0.000733905224777
-0.000611651492937
-0.000764144691681
-0.000531593634686
-0.000797080783125
-0.000449760605443
-0.000831517349296
-0.000368037436273
-0.000865394801981
-0.000288805044728
-0.000899030320127
-0.000214298935005
-0.000925939064433
-0.000148804319118
-0.00096423671944
-9.31556885682e-05
-0.000946110554184
-8.55593695218e-06
-0.00129354744551
-0.000801773878149
-4.83270916727e-05