/*--------------------------------*- C++ -*----------------------------------*\
| =========                 |                                                 |
| \\      /  F ield         | OpenFOAM: The Open Source CFD Toolbox           |
|  \\    /   O peration     | Version:  v1806                                 |
|   \\  /    A nd           | Web:      www.OpenFOAM.com                      |
|    \\/     M anipulation  |                                                 |
\*---------------------------------------------------------------------------*/
FoamFile
{
    version     2.0;
    format      ascii;
    class       volVectorField;
    location    "100";
    object      U;
}
// * * * * * * * * * * * * * * * * * * * * * * * * * * * * * * * * * * * * * //

dimensions      [0 1 -1 0 0 0 0];


internalField   nonuniform List<vector> 
6400
(
(0.0054373618079 0.00398921660368 0)
(0.0126135345894 0.000970438010193 0)
(0.0113171698668 -0.000216017578508 0)
(0.00408514951439 -0.00146127853583 0)
(-0.0134356919022 -0.00702435730756 0)
(-0.0362805626084 -0.0122255296268 0)
(-0.0587335510648 -0.0141216698427 0)
(-0.0820552662506 -0.0142899270361 0)
(-0.105495815241 -0.0135013452945 0)
(-0.127719416789 -0.0121940432693 0)
(-0.146708251711 -0.0107235656768 0)
(-0.1648770282 -0.00961254398622 0)
(-0.181698613658 -0.00870631421314 0)
(-0.197074913846 -0.00788132626123 0)
(-0.211040046821 -0.00710291427583 0)
(-0.223624383413 -0.00636735723281 0)
(-0.234878081865 -0.00567913982344 0)
(-0.244872382452 -0.00504351023083 0)
(-0.253696016428 -0.00446441519507 0)
(-0.261450246308 -0.00394392627211 0)
(-0.268244498211 -0.00348231505075 0)
(-0.274191854859 -0.0030782752218 0)
(-0.279404214433 -0.00272922715263 0)
(-0.283987191745 -0.0024315687232 0)
(-0.288035651136 -0.0021808359403 0)
(-0.291631150881 -0.00197171353505 0)
(-0.294842155107 -0.00179804749459 0)
(-0.297726646569 -0.0016530256757 0)
(-0.300335526135 -0.00152963582306 0)
(-0.30271445365 -0.00142127942887 0)
(-0.3049026156 -0.0013222827306 0)
(-0.30692852843 -0.00122799805705 0)
(-0.308804951099 -0.00113425840215 0)
(-0.310526184545 -0.00103633458042 0)
(-0.312069392785 -0.00092771588016 0)
(-0.313400433613 -0.000799172251112 0)
(-0.314478411828 -0.000638759983506 0)
(-0.31525451447 -0.000434125198447 0)
(-0.315665140799 -0.000176500998968 0)
(-0.315621357608 0.000140559608446 0)
(-0.315013947403 0.000528420225272 0)
(-0.313697703327 0.00100433805407 0)
(-0.311492872396 0.00158825552573 0)
(-0.308189574166 0.00230079421221 0)
(-0.303546816131 0.00316021866467 0)
(-0.297293976782 0.0041797030785 0)
(-0.289142098014 0.00536472576508 0)
(-0.278804616176 0.00670862969676 0)
(-0.266032552884 0.00818916684793 0)
(-0.250643387125 0.00976518380322 0)
(-0.23255240838 0.0113782418022 0)
(-0.211794317877 0.0129584870106 0)
(-0.188542896822 0.0144387899636 0)
(-0.16316242229 0.0157628746271 0)
(-0.136069201087 0.0168607612548 0)
(-0.107734280481 0.0176903258989 0)
(-0.0787318306067 0.018372949651 0)
(-0.0501398460658 0.0194314356523 0)
(-0.0235744338291 0.0214581026135 0)
(0.00653533853687 0.0212917993988 0)
(0.0297116456969 0.0172976566883 0)
(0.0516294792242 0.0139849035007 0)
(0.0706936554893 0.0112299868759 0)
(0.0862398204544 0.00877073592213 0)
(0.0983334293874 0.00646955469809 0)
(0.107040133495 0.0042977288041 0)
(0.112377641358 0.002267493002 0)
(0.114344791216 0.000429085564851 0)
(0.113277916372 -0.0012283855506 0)
(0.109265234437 -0.0027670829805 0)
(0.102518590218 -0.00419973930037 0)
(0.0933196820099 -0.00551790919226 0)
(0.0819816191843 -0.00670137801014 0)
(0.0688674821958 -0.00771867119141 0)
(0.054416901031 -0.00852639750342 0)
(0.0391669450397 -0.00906964376569 0)
(0.0239301986362 -0.00922858381802 0)
(0.00908428144985 -0.00820060911719 0)
(-0.00683376244002 0.00169520002785 0)
(-0.0011086262781 0.00544495047286 0)
(-8.9205994313e-05 0.0080918365163 0)
(0.00716389261402 0.00266748919176 0)
(-0.0114496161456 -0.00978064553637 0)
(-0.0306581129256 -0.0190613290139 0)
(-0.0484357325969 -0.0260709999456 0)
(-0.0691846373214 -0.031634436701 0)
(-0.0912621938552 -0.0345758450476 0)
(-0.111781502193 -0.0346007023072 0)
(-0.132232832036 -0.0333038575946 0)
(-0.152047193494 -0.0311887550433 0)
(-0.17097206537 -0.0288122948569 0)
(-0.188850960063 -0.0265278186963 0)
(-0.205315427831 -0.0243125975797 0)
(-0.220250169879 -0.0221189501035 0)
(-0.233642232435 -0.0199604522068 0)
(-0.24551783011 -0.0178696604881 0)
(-0.255938560092 -0.0158804127673 0)
(-0.264991255094 -0.0140206167589 0)
(-0.272780180047 -0.0123104312516 0)
(-0.279420821854 -0.0107621560378 0)
(-0.285035097185 -0.00938106324696 0)
(-0.289746855043 -0.00816656293753 0)
(-0.293677221518 -0.00711343908426 0)
(-0.296939848207 -0.0062128711972 0)
(-0.299636874863 -0.00545303001556 0)
(-0.301856517391 -0.00481929663178 0)
(-0.303673132389 -0.00429445546928 0)
(-0.305149302489 -0.00385928931451 0)
(-0.306338769749 -0.00349384185289 0)
(-0.307288281093 -0.00317909549347 0)
(-0.308036963562 -0.00289846318671 0)
(-0.308613884232 -0.00263817326691 0)
(-0.309032424719 -0.00238607140908 0)
(-0.309289561394 -0.00212921731473 0)
(-0.30936733679 -0.00185066358979 0)
(-0.309236904066 -0.00152747811833 0)
(-0.30886003618 -0.00113319326483 0)
(-0.308183925286 -0.000645142543128 0)
(-0.307172436609 -4.2720012554e-05 0)
(-0.305781556071 0.00070154689854 0)
(-0.303906015666 0.0016244187852 0)
(-0.301409965345 0.00277061697734 0)
(-0.29812514238 0.00419146973791 0)
(-0.293849842938 0.00594067349442 0)
(-0.288347829757 0.00806680734727 0)
(-0.281349557426 0.0106044661684 0)
(-0.272562989307 0.0135646247632 0)
(-0.261694140689 0.0169242069609 0)
(-0.248480449224 0.0206147559419 0)
(-0.232725494002 0.0245152128327 0)
(-0.21433492139 0.0284568171385 0)
(-0.193347090152 0.0322461570613 0)
(-0.169948650935 0.0356941443366 0)
(-0.144466986831 0.0386039681547 0)
(-0.117298387979 0.0407683823502 0)
(-0.0889989895262 0.0420646805211 0)
(-0.0604019447219 0.0426845678515 0)
(-0.0324521032845 0.0433210396894 0)
(-0.00359907192878 0.0438589934806 0)
(0.0229896393862 0.0409298587416 0)
(0.0455354240588 0.0356988562646 0)
(0.0664976171861 0.0303793495757 0)
(0.0848716666555 0.025325475426 0)
(0.100270764593 0.0203305808736 0)
(0.112582029198 0.0153080297998 0)
(0.12176065866 0.0102900544176 0)
(0.127787971365 0.00534749657429 0)
(0.130675707788 0.000575868865697 0)
(0.130471238714 -0.00391289487068 0)
(0.12726900446 -0.00810318687243 0)
(0.121226872171 -0.0119441196109 0)
(0.112599795042 -0.0153669785425 0)
(0.101686097065 -0.0182908704571 0)
(0.0888403811011 -0.0206166018175 0)
(0.0745043380376 -0.0222175372971 0)
(0.0592280045311 -0.022918869746 0)
(0.0438190665226 -0.0224158645888 0)
(0.0288524465215 -0.019931701998 0)
(0.0158487824126 -0.0137304453347 0)
(0.0055615304404 0.00162882430358 0)
(-0.00577937960719 0.00663447812623 0)
(-0.0170436911719 -0.0132736416224 0)
(-0.0334245792744 -0.0265565733502 -1.29721144277e-28)
(-0.0509934202528 -0.0375619623731 8.54883527734e-29)
(-0.0683816718379 -0.0461185473029 6.48498414012e-29)
(-0.0865611285949 -0.0518168267288 -5.28823198946e-29)
(-0.105128456912 -0.0545027166157 4.52273155032e-29)
(-0.123296054024 -0.0546123941644 -4.03855532014e-29)
(-0.141240089188 -0.053040978625 0)
(-0.158582820924 -0.0503116860788 0)
(-0.175064546501 -0.0469392543978 0)
(-0.190394923734 -0.043289358415 0)
(-0.204317248116 -0.039509701313 0)
(-0.21673699537 -0.0356870799368 0)
(-0.227657601584 -0.0319120314435 0)
(-0.237133882156 -0.0282651770703 0)
(-0.245254626997 -0.0248115508205 0)
(-0.252129009416 -0.0215989902546 0)
(-0.257877454089 -0.0186592208434 0)
(-0.262625543242 -0.016009637174 0)
(-0.266499813768 -0.0136555692463 0)
(-0.269624092734 -0.0115926771194 0)
(-0.272115840343 -0.00980917416846 0)
(-0.274082568169 -0.00828754034885 0)
(-0.275618695012 -0.00700556527814 0)
(-0.276803992501 -0.0059369339411 0)
(-0.277703710407 -0.00505169521459 0)
(-0.27837061533 -0.00431721988927 0)
(-0.278847740228 -0.00369998466862 0)
(-0.279170524631 -0.00316798366365 -1.78529493767e-28)
(-0.279368115202 -0.00269271861969 1.78690125828e-28)
(-0.279458663318 -0.00224984854371 0)
(-0.279450611912 -0.00181811113048 0)
(-0.279339439656 -0.00137570351846 0)
(-0.279109356984 -0.000896404981345 0)
(-0.278732956118 -0.00034946245434 0)
(-0.278166439357 0.000294189574748 0)
(-0.277405816147 0.00106435538248 0)
(-0.276415153879 0.00200682216199 0)
(-0.275100101631 0.00318206882286 0)
(-0.273367777014 0.00465445817725 0)
(-0.271093501742 0.00649697725936 0)
(-0.268119279546 0.00879392902849 0)
(-0.264248663346 0.0116357679771 0)
(-0.259242419655 0.0151082189868 0)
(-0.252819616222 0.0192775639214 0)
(-0.24466648458 0.0241707427076 0)
(-0.234459825311 0.0297535464908 0)
(-0.22190197249 0.0359091004689 0)
(-0.206766057606 0.0424270440576 0)
(-0.188946481974 0.0490152473686 0)
(-0.168495540174 0.0553338204197 0)
(-0.145628572753 0.0610467137566 0)
(-0.12064228414 0.0658071439395 0)
(-0.0940170198026 0.0692952946764 0)
(-0.0664695747326 0.0714519122676 0)
(-0.0390532774992 0.0725551805261 0)
(-0.0115530946774 0.0725781556185 0)
(0.0162052091402 0.0695656790154 0)
(0.0388638181113 0.0640640872697 0)
(0.0607498017188 0.0573290068379 0)
(0.0807596507824 0.0501174922596 0)
(0.0983743271339 0.0425782359624 0)
(0.113247874938 0.0347392043528 0)
(0.125172820465 0.0266781583383 0)
(0.134039410348 0.0185280510222 0)
(0.139807276866 0.0104431489232 0)
(0.142480805294 0.0025769238532 0)
(0.142211778458 -0.00498619921979 0)
(0.139072776903 -0.0121544710533 0)
(0.133200368013 -0.0187994052156 0)
(0.124827414747 -0.024785801802 0)
(0.11421673528 -0.0299627822399 0)
(0.101671239158 -0.0341503283575 0)
(0.0875602707925 -0.0371208144107 0)
(0.072322473534 -0.038563775406 0)
(0.0565293988028 -0.0380079023937 0)
(0.0406404909422 -0.0345673486534 0)
(0.0251016353543 -0.0270482356386 0)
(0.0132181934641 -0.0136438874066 0)
(-0.013653839154 -0.00341831739056 0)
(-0.0272633787341 -0.0251309779152 0)
(-0.0444010479995 -0.0414500138197 0)
(-0.0607163228937 -0.0539622635629 0)
(-0.0770023984199 -0.0632619118147 0)
(-0.0935185073736 -0.0691423334321 0)
(-0.10998782472 -0.0717840919282 0)
(-0.126035368612 -0.071723672868 0)
(-0.14158979853 -0.0696674957657 0)
(-0.156363875856 -0.0661510766902 0)
(-0.170125237904 -0.0616859835316 0)
(-0.182677645857 -0.0566907168005 0)
(-0.193889892759 -0.0514433951517 0)
(-0.203726157248 -0.0461408250697 0)
(-0.212216136535 -0.0409399438235 0)
(-0.21943174376 -0.0359615895897 0)
(-0.225470806218 -0.0312936411598 0)
(-0.230443875709 -0.0269952786563 0)
(-0.234467030762 -0.0231017336809 0)
(-0.237658000704 -0.0196286317955 0)
(-0.240133573514 -0.0165759041653 0)
(-0.242007009632 -0.0139311553608 0)
(-0.243385201475 -0.0116724824553 0)
(-0.244365448146 -0.00977070471416 0)
(-0.245032788421 -0.00819103520541 0)
(-0.245458246201 -0.00689428882101 0)
(-0.245698787899 -0.00583791945968 0)
(-0.245798665478 -0.00497730642427 0)
(-0.245791562608 -0.0042677372397 0)
(-0.245703996077 -0.0036665835201 0)
(-0.245552495204 -0.00313495609701 0)
(-0.245348282074 -0.00263874449718 0)
(-0.245094086825 -0.00214724042492 0)
(-0.244784629951 -0.00162975120183 0)
(-0.244404393574 -0.00105460035866 0)
(-0.243921558519 -0.000391938424904 0)
(-0.243331239806 0.000389587236553 0)
(-0.242625762981 0.00134285044642 0)
(-0.241725493313 0.00254034466579 0)
(-0.2405750962 0.00405590495419 0)
(-0.239094191637 0.00597404869101 0)
(-0.237175950983 0.00839704044495 0)
(-0.234678652607 0.0114445129762 0)
(-0.231415876185 0.0152481693216 0)
(-0.227147554154 0.0199405555141 0)
(-0.22157635151 0.0256322878066 2.15608104639e-28)
(-0.214354088579 0.0323816620468 -2.16203277321e-28)
(-0.205106653938 0.0401554178927 0)
(-0.193477867853 0.0487915789221 0)
(-0.179194187366 0.0579810676609 0)
(-0.162128635158 0.0672873179945 0)
(-0.142368431472 0.0761892242508 0)
(-0.120128520556 0.0842045377097 0)
(-0.0957780215685 0.0908364319027 0)
(-0.0699420863257 0.0956864462058 0)
(-0.0434886809525 0.098790801052 0)
(-0.0171878559512 0.100200314078 0)
(0.0104516360115 0.098375615603 5.75664456717e-28)
(0.0335869697595 0.0933373693823 -5.00249753281e-28)
(0.0561172344106 0.0862035281986 0)
(0.077218760472 0.0778098459806 0)
(0.0964212850094 0.0684516782263 0)
(0.113330829291 0.0583441803131 0)
(0.12761864914 0.0476672064251 0)
(0.139051768454 0.0366040413903 0)
(0.147486987937 0.0253609746529 0)
(0.152859063119 0.0141607810945 0)
(0.155152000608 0.00322830649461 0)
(0.15452312096 -0.00725142655949 0)
(0.15101754785 -0.017137037425 0)
(0.144790549096 -0.026287269064 0)
(0.136087748335 -0.0345511664219 0)
(0.125170671264 -0.0417512383913 0)
(0.112318463503 -0.0476691646425 0)
(0.0978389476895 -0.0520260756165 0)
(0.0820546631875 -0.0544501092262 0)
(0.0653084191846 -0.0544327972542 0)
(0.0478930360926 -0.0511818850146 0)
(0.0295382428181 -0.0438957235409 0)
(0.0142205435106 -0.0302620572807 0)
(-0.0169331601988 -0.018930823593 0)
(-0.0312500020709 -0.0394139658648 0)
(-0.0479325970715 -0.0563558098342 0)
(-0.0637071318518 -0.0695284376897 0)
(-0.0792166753301 -0.0789948721161 0)
(-0.094523130792 -0.0847251428608 0)
(-0.109345897609 -0.0870518525132 0)
(-0.123436127226 -0.0865133353033 0)
(-0.136761777799 -0.0837425348499 0)
(-0.149152478608 -0.0793084063322 0)
(-0.160438730165 -0.0737388118778 0)
(-0.170506378196 -0.0674905534067 0)
(-0.179311917823 -0.060921510551 0)
(-0.186872613593 -0.0543067681689 0)
(-0.193242018375 -0.0478533860808 0)
(-0.198497036685 -0.0417093962675 0)
(-0.202728987435 -0.0359760413902 0)
(-0.20603699648 -0.030718444205 0)
(-0.208525255067 -0.0259740557908 0)
(-0.210301651079 -0.0217587971206 0)
(-0.211476053096 -0.018071263332 0)
(-0.212157526179 -0.0148955447407 0)
(-0.212450342008 -0.012203463613 0)
(-0.212449848582 -0.00995680350629 0)
(-0.212238745423 -0.00810956070869 0)
(-0.211884808467 -0.00661026776983 0)
(-0.211440472399 -0.00540415913954 0)
(-0.210943778378 -0.00443527354888 0)
(-0.210422156936 -0.00364865329539 0)
(-0.209890342063 -0.00299194745926 0)
(-0.20935806803 -0.00241688085146 -2.36430724378e-28)
(-0.208828225266 -0.00187967859 2.37698093385e-28)
(-0.208298691651 -0.00134152965869 0)
(-0.207759983931 -0.000768657863448 0)
(-0.207189220046 -0.000135515653178 0)
(-0.206584036104 0.000583736480284 0)
(-0.205979026309 0.00144171616627 0)
(-0.205282495969 0.00251491748262 0)
(-0.204468437383 0.00388006391665 0)
(-0.203490931638 0.00562361358951 0)
(-0.202289267055 0.0078532874321 0)
(-0.200778829178 0.0107016134642 0)
(-0.198839557039 0.0143272774635 0)
(-0.196300751136 0.0189125871489 0)
(-0.192925371421 0.0246491751047 0)
(-0.188396031779 0.0317115876286 0)
(-0.182317109779 0.0402098566163 0)
(-0.174240425735 0.0501277787311 0)
(-0.163727207621 0.0612624176536 0)
(-0.150445035178 0.0731797842899 0)
(-0.1342302444 0.0852722847077 0)
(-0.115213237611 0.0967617364344 0)
(-0.0936715177952 0.107034287642 0)
(-0.0700893743641 0.115484026947 0)
(-0.0453155725387 0.121631516577 0)
(-0.0200401875643 0.12540205784 0)
(0.00620895336986 0.125840304333 0)
(0.0297467498726 0.122326074551 0)
(0.0524948497339 0.115989541151 0)
(0.0742319976896 0.107630562155 0)
(0.0945077431796 0.0975955690032 0)
(0.112929437445 0.0861783733999 0)
(0.129132697536 0.0736584768673 0)
(0.142804973902 0.0602970684577 0)
(0.153703830926 0.0463564385857 0)
(0.16166070649 0.032117219465 0)
(0.166582868366 0.0178792674628 0)
(0.168431795429 0.00395094616444 0)
(0.167362379882 -0.00946072997841 0)
(0.163371792885 -0.0221571377986 0)
(0.1566120611 -0.0339350004026 0)
(0.147320925173 -0.0445914173845 0)
(0.135754109987 -0.0539107897125 0)
(0.122180912734 -0.0616530595185 0)
(0.106879734436 -0.0675335351925 0)
(0.0901143480631 -0.0711942031371 0)
(0.0721045825758 -0.0721845609531 0)
(0.0530974158212 -0.0698732765332 0)
(0.0323874476124 -0.0637669079253 0)
(0.0146081115314 -0.0512371440632 0)
(-0.0152779955354 -0.0345347030014 0)
(-0.0302663053049 -0.0559501885762 0)
(-0.0471749535481 -0.0723117810205 0)
(-0.0627576925204 -0.0850657872259 0)
(-0.0776301006471 -0.093973519795 0)
(-0.0918283031933 -0.0990810377778 0)
(-0.10516571281 -0.100746636114 0)
(-0.117503484433 -0.0994200013615 0)
(-0.128848692091 -0.0956844880312 0)
(-0.139123083343 -0.0901563516616 0)
(-0.148243595228 -0.0834131318071 0)
(-0.156167951165 -0.0759514194107 0)
(-0.162902335634 -0.0681729940879 0)
(-0.168489813291 -0.0603919081118 0)
(-0.172992951927 -0.0528410608441 0)
(-0.176484641877 -0.0456836183817 0)
(-0.179045077959 -0.0390296923223 0)
(-0.180762283651 -0.0329507855493 0)
(-0.181733946871 -0.0274900793626 0)
(-0.182067794652 -0.0226683677425 0)
(-0.181879456734 -0.0184866989837 0)
(-0.181287377487 -0.0149273902379 0)
(-0.180406082286 -0.0119553232371 0)
(-0.179339238533 -0.00952041242526 0)
(-0.17817403891 -0.00756112191926 0)
(-0.176978339752 -0.00600910186302 0)
(-0.175800568368 -0.00479344639494 0)
(-0.174673219385 -0.00384331014719 0)
(-0.173610528896 -0.00309097875744 0)
(-0.172619797732 -0.00247423948153 0)
(-0.171701023477 -0.00193639257442 0)
(-0.170847616903 -0.00142779527159 0)
(-0.170046065221 -0.000912468550937 0)
(-0.169270899462 -0.000365395373636 0)
(-0.168563402436 0.000244858316139 0)
(-0.167930916399 0.000970651389498 0)
(-0.167275474326 0.00188068840115 0)
(-0.166590811468 0.00304176765598 0)
(-0.165857264717 0.00452624425549 0)
(-0.165050078833 0.00643083949139 0)
(-0.164132947852 0.00888160761494 0)
(-0.163049064483 0.0120400002168 0)
(-0.161706864446 0.016108040442 0)
(-0.159959849004 0.0213271033112 0)
(-0.157578418727 0.0279668309401 0)
(-0.15422234627 0.036291784259 0)
(-0.14943220546 0.0464935507227 0)
(-0.1426640012 0.0585957453654 0)
(-0.13337110867 0.0723575646086 0)
(-0.121155441388 0.0871889779309 0)
(-0.105803086624 0.102246771047 0)
(-0.087550857319 0.116405920664 0)
(-0.066759153344 0.12898909144 0)
(-0.0441048454363 0.139284055584 0)
(-0.0205102316336 0.14658716789 0)
(0.00424718812587 0.150230928438 0)
(0.0274397810413 0.149388580217 0)
(0.0499794385305 0.14503538878 0)
(0.0719100061841 0.137866280909 0)
(0.0927955092982 0.128274718881 0)
(0.112240192882 0.116594572744 0)
(0.129873209813 0.103157602685 0)
(0.145355358583 0.0882873331227 0)
(0.158388506604 0.0723002699796 0)
(0.168724970798 0.0555211170257 0)
(0.17617468754 0.038297048566 0)
(0.180615101052 0.021001421756 0)
(0.181982357419 0.00402442179029 0)
(0.180411395224 -0.0123662077107 0)
(0.175854262164 -0.0279026491109 0)
(0.168461084166 -0.0423343133075 0)
(0.158454341823 -0.0554188111331 0)
(0.146075934 -0.0669123175587 0)
(0.131584074882 -0.0765635660624 0)
(0.115241687779 -0.0840981455182 0)
(0.0972929368357 -0.0891947126611 0)
(0.0779088431748 -0.0914762765731 0)
(0.0573883411931 -0.0904327054533 0)
(0.034762631023 -0.0857423823405 0)
(0.0150522676166 -0.0744408828174 0)
(-0.0131449201611 -0.0542218667015 0)
(-0.027513053123 -0.073955081079 0)
(-0.0444092779303 -0.088743767887 0)
(-0.0596234318848 -0.100314856294 0)
(-0.073771230405 -0.108179044477 0)
(-0.0868488173289 -0.112302259008 0)
(-0.0987841587087 -0.112971718892 0)
(-0.109543166215 -0.110587834511 0)
(-0.119151417688 -0.105718057318 0)
(-0.127584630139 -0.0990045226164 0)
(-0.134831817014 -0.0910632212418 2.32783727121e-28)
(-0.140909183911 -0.0824252328862 -2.35242107144e-28)
(-0.145852949615 -0.0735169978537 0)
(-0.149712387898 -0.0646642848688 0)
(-0.152543014792 -0.0561042486579 0)
(-0.154404727854 -0.0480036296096 0)
(-0.155365312049 -0.0404789092475 0)
(-0.155506592678 -0.03361214185 0)
(-0.154929587262 -0.0274602379283 0)
(-0.153755518851 -0.0220578714818 0)
(-0.15212148079 -0.0174161464964 0)
(-0.150171390402 -0.0135200392014 0)
(-0.148043575184 -0.0103282313174 0)
(-0.145860121534 -0.00777649473992 0)
(-0.143717602582 -0.00578325428683 0)
(-0.141685512621 -0.0042580403135 0)
(-0.139805813111 -0.00310877774136 0)
(-0.138095081565 -0.0022451981311 0)
(-0.136555202326 -0.00158674892751 0)
(-0.135177215457 -0.00106827390298 0)
(-0.133945444266 -0.000636843046662 0)
(-0.132841558235 -0.00024926718026 3.68980861762e-28)
(-0.131910591864 0.000136431629666 -3.72042742617e-28)
(-0.131128828348 0.000566423029718 0)
(-0.130412702222 0.00109464478531 0)
(-0.129710320233 0.00178209154508 0)
(-0.129018313336 0.00267911942812 0)
(-0.128333755174 0.00383783310176 0)
(-0.127654630829 0.00533239917467 0)
(-0.126977766075 0.00726538929868 0)
(-0.12629456432 0.00977671579927 0)
(-0.125582173015 0.0130543267604 0)
(-0.124787595831 0.0173444116456 0)
(-0.123799405239 0.0229580700505 0)
(-0.122405598161 0.0302647295264 0)
(-0.120239617238 0.0396560617798 0)
(-0.116758680639 0.0514525403579 0)
(-0.111306286116 0.0657437932274 0)
(-0.103177910328 0.0822701560677 0)
(-0.0919632690988 0.100167726659 0)
(-0.0773794463634 0.118343933753 0)
(-0.0598869863731 0.135211776365 0)
(-0.0399048794934 0.150146214797 0)
(-0.0182466034877 0.16216537771 0)
(0.00461206941012 0.170037917743 0)
(0.0267458297571 0.172921386787 0)
(0.0486805239907 0.171690492997 0)
(0.0703745132296 0.166886707308 0)
(0.0914153444915 0.158890280672 0)
(0.111405040139 0.148061151604 0)
(0.129971546675 0.134766472673 0)
(0.146771613988 0.119370690646 0)
(0.161492152404 0.102232083112 0)
(0.173850027407 0.0837066673864 0)
(0.18359544985 0.0641648456636 0)
(0.190518301523 0.0440081077373 0)
(0.194461686113 0.0236797616431 0)
(0.195335138989 0.00365876025124 0)
(0.193240430577 -0.015744479801 0)
(0.188093739461 -0.0341963531972 0)
(0.180037159261 -0.0513863599236 0)
(0.169272886369 -0.0670174785442 0)
(0.156028229934 -0.080810342709 0)
(0.140552367237 -0.0925025913202 0)
(0.123100039975 -0.101833620922 0)
(0.10391426135 -0.108520634652 0)
(0.0831489573169 -0.112251166924 0)
(0.0611921327357 -0.112593387191 0)
(0.0368995803818 -0.109298843734 0)
(0.0155405800329 -0.0990004956601 0)
(-0.0110088929329 -0.0744339546104 0)
(-0.0246065550401 -0.0921062935597 0)
(-0.0410030473708 -0.104889598528 0)
(-0.0554165998635 -0.114911453572 0)
(-0.0686183346091 -0.121440707242 0)
(-0.0805252382787 -0.124327314379 0)
(-0.0911255673511 -0.123763017847 0)
(-0.100440564007 -0.120139830977 0)
(-0.108511246792 -0.114037328961 0)
(-0.115351291625 -0.10611013356 0)
(-0.120994574988 -0.0969883495965 0)
(-0.125490049624 -0.0872170993772 0)
(-0.128886115835 -0.0772299840992 0)
(-0.131225586264 -0.0673512013609 0)
(-0.13254697806 -0.057814579325 0)
(-0.132891695242 -0.0487895054986 0)
(-0.132315182203 -0.0404047281013 0)
(-0.130898639055 -0.0327638317862 0)
(-0.128757453816 -0.0259502524777 0)
(-0.12604156952 -0.0200234934693 0)
(-0.122928629831 -0.0150113448245 0)
(-0.119604090029 -0.0109021373017 0)
(-0.116252602545 -0.00764290104899 0)
(-0.113025252888 -0.0051444930348 0)
(-0.110029443815 -0.00329209878978 0)
(-0.107324284322 -0.00196147100266 0)
(-0.104931178768 -0.0010386872663 0)
(-0.102847510114 -0.000425479263881 0)
(-0.101177990337 -3.50710389823e-05 0)
(-0.0998515837012 0.000227074858812 0)
(-0.098784696184 0.000434951633334 0)
(-0.0979110765084 0.00064024396076 0)
(-0.0970867127136 0.000894994440629 0)
(-0.0962953882967 0.00125154890514 0)
(-0.0955204192408 0.00174956893967 0)
(-0.0947558611599 0.00241917598092 0)
(-0.0940009614327 0.00329712116365 0)
(-0.0932591405572 0.00443398306273 0)
(-0.0925397086921 0.00590144418009 0)
(-0.0918586290954 0.00780179745858 0)
(-0.0912363713258 0.0102811242235 0)
(-0.090690773915 0.0135460457932 0)
(-0.0902199966726 0.0178838443814 0)
(-0.0897657547286 0.0236840853561 0)
(-0.0891548698808 0.0314376156586 4.16060354645e-28)
(-0.0879962793658 0.0417214566304 -3.88622901441e-28)
(-0.0856326683231 0.0550504158285 0)
(-0.0812859676191 0.0715922884418 0)
(-0.0740338850059 0.091065389519 0)
(-0.0635474331251 0.112180262835 0)
(-0.0495220472283 0.133611820515 0)
(-0.0327828138942 0.153218301599 0)
(-0.0136050456638 0.170476337938 0)
(0.00736553360811 0.183789530477 0)
(0.0277501943861 0.191349771517 0)
(0.0486755506106 0.194352283824 0)
(0.0697364074615 0.193079174314 0)
(0.0905130040755 0.187837000889 0)
(0.110598875218 0.178988036237 0)
(0.129618307854 0.166926021341 0)
(0.147230318889 0.152052548957 0)
(0.163124601617 0.134762488014 0)
(0.177018890023 0.115442287684 0)
(0.188651018902 0.0944734712591 0)
(0.197776280081 0.072253633081 0)
(0.204167705097 0.049217961919 0)
(0.207627561351 0.0258657283404 0)
(0.208035157827 0.00276980115902 0)
(0.205432340313 -0.0196919154563 0)
(0.199715958078 -0.0411201742334 0)
(0.191011342625 -0.0611479477194 0)
(0.179500381807 -0.0794225186549 0)
(0.165402540409 -0.0956265152184 0)
(0.148962838842 -0.109482334031 0)
(0.13043001919 -0.120736923344 0)
(0.110050119777 -0.129136297073 0)
(0.0879668541531 -0.134416613457 0)
(0.0646601067782 -0.136197550227 0)
(0.0388563868437 -0.13426097022 0)
(0.0160299039911 -0.124802345423 0)
(-0.00938755620263 -0.0934594270033 0)
(-0.0221953554827 -0.109177919172 0)
(-0.0375637287678 -0.120100044969 0)
(-0.0507753338985 -0.128545194266 0)
(-0.0628295284124 -0.133615999453 0)
(-0.0735119467658 -0.135115499348 0)
(-0.0828279395771 -0.133186894704 0)
(-0.0908113593579 -0.128234340316 0)
(-0.0975142710772 -0.120855652021 0)
(-0.102978515453 -0.111714046895 0)
(-0.10726107477 -0.101440193577 0)
(-0.110420293688 -0.0905738700825 0)
(-0.112500272312 -0.0795381911975 0)
(-0.113528254857 -0.0686452548985 0)
(-0.113521577716 -0.0581222662512 0)
(-0.112502521979 -0.0481441156939 0)
(-0.110517342681 -0.0388600486565 0)
(-0.107654523514 -0.0304072778844 0)
(-0.104050278619 -0.0229104576563 0)
(-0.0999101794743 -0.016471354325 0)
(-0.0954843921431 -0.0111468017985 0)
(-0.091038911436 -0.00693293880699 0)
(-0.0868019891955 -0.00375801845866 0)
(-0.0829477184073 -0.00149572710803 0)
(-0.0795685565815 -1.25615787498e-06 0)
(-0.0769374959627 0.000856805387706 0)
(-0.0750442776055 0.00126488293453 0)
(-0.0737108587495 0.00140466750936 0)
(-0.0725836887285 0.00142531856548 0)
(-0.071578083052 0.00142039579158 0)
(-0.0706574735317 0.00145223914571 0)
(-0.0697912100499 0.00156379405614 0)
(-0.0689572153044 0.00177754000312 6.66608863191e-28)
(-0.0681368967153 0.0021090132417 -6.71852066769e-28)
(-0.0673116744287 0.00258320299019 0)
(-0.0664661767369 0.00322962276903 0)
(-0.0655894698562 0.00408279604475 0)
(-0.064678589613 0.0051876460181 0)
(-0.0637431317393 0.00660697133652 0)
(-0.0628090412141 0.00843318330899 0)
(-0.0619205702534 0.0108053570027 0)
(-0.0611373863427 0.013935107721 0)
(-0.060522270725 0.0181425881542 0)
(-0.0600948502985 0.023899000852 0)
(-0.0597735988586 0.0318513218617 0)
(-0.0591660608422 0.0428355791548 0)
(-0.0574276203839 0.0576352197914 0)
(-0.0536819655179 0.0764560267872 0)
(-0.0467455920153 0.0990630762672 0)
(-0.0365255680399 0.123513643578 0)
(-0.0228107239776 0.14831389126 0)
(-0.00676101223324 0.170659856925 0)
(0.0118731007172 0.189920971789 0)
(0.0304216524262 0.203202898303 0)
(0.0499543416854 0.211514353578 0)
(0.0700385515971 0.214899538613 0)
(0.0901934861945 0.213555733574 0)
(0.10998663592 0.207814290568 0)
(0.12903013485 0.198078372517 0)
(0.146978549135 0.184781973505 0)
(0.163527794315 0.168363759919 0)
(0.178406122339 0.149248493107 0)
(0.191370179762 0.127845876914 0)
(0.202190065215 0.104551504253 0)
(0.210642193821 0.0797731524953 0)
(0.216496227178 0.0539542870274 0)
(0.219510692892 0.027630243383 0)
(0.219528271168 0.00144827951376 0)
(0.216479679829 -0.0241413656315 0)
(0.210273438497 -0.0486477907583 0)
(0.201001960325 -0.0716154001033 0)
(0.188822903183 -0.09262725561 0)
(0.173953650658 -0.111335752762 0)
(0.156640639197 -0.127455149634 0)
(0.137128765277 -0.140739187572 0)
(0.115666692709 -0.150953791524 0)
(0.0923847786296 -0.157868156771 0)
(0.0678463159149 -0.161134564882 0)
(0.0406682427313 -0.160547152504 0)
(0.0165094546653 -0.151850879554 0)
(-0.00826017228993 -0.109894337657 0)
(-0.0202095488829 -0.124400821712 0)
(-0.0341835153455 -0.13392702727 0)
(-0.0459994709545 -0.140952826959 0)
(-0.0568096614388 -0.14458090317 0)
(-0.066247016111 -0.144654841584 0)
(-0.0743303834728 -0.141326352081 0)
(-0.0810888780826 -0.135029214142 0)
(-0.0865809113621 -0.12638002441 0)
(-0.0908655703551 -0.116048232786 0)
(-0.0940084484245 -0.104658137534 0)
(-0.0960638353106 -0.0927319027384 0)
(-0.0970625413427 -0.0806695984536 0)
(-0.0970129083995 -0.0687636012876 0)
(-0.0959129698493 -0.0572337977771 0)
(-0.0937720798587 -0.0462667093209 0)
(-0.0906317262575 -0.0360443337031 0)
(-0.0866013010164 -0.0267589850167 0)
(-0.0818917345287 -0.0186072022889 0)
(-0.0767881335032 -0.0117568378824 0)
(-0.0716313719548 -0.00630954965837 0)
(-0.0667631299475 -0.00226266137275 0)
(-0.0624457012187 0.000486070796311 0)
(-0.0591221084617 0.00206375628438 0)
(-0.057003551649 0.0027173328606 0)
(-0.0554700802675 0.00284370235934 0)
(-0.0541910285523 0.00272973929778 0)
(-0.0530925374693 0.00255092941136 0)
(-0.0521261468359 0.00240118839735 0)
(-0.0512590689637 0.00231516194781 0)
(-0.0504627541179 0.0023080751853 0)
(-0.0497111332831 0.00239680484278 0)
(-0.0489791543359 0.00260078266513 0)
(-0.0482385283236 0.00294154888816 0)
(-0.0474568510284 0.00344445519462 0)
(-0.0466001483387 0.00413693158976 0)
(-0.0456369822853 0.0050490106292 0)
(-0.0445445515278 0.00621535578889 0)
(-0.043314438683 0.00768239218078 0)
(-0.0419613487678 0.00951750229039 0)
(-0.0405267798352 0.011833615733 0)
(-0.0390865128597 0.0148223857672 0)
(-0.0377711827654 0.0188002509804 0)
(-0.03668291203 0.024331330835 0)
(-0.0359185718253 0.0322057489275 0)
(-0.035114099221 0.0436421777669 0)
(-0.0331815629308 0.059816614488 0)
(-0.0292040182346 0.080890523964 0)
(-0.0218930476248 0.106841693831 0)
(-0.0114705316037 0.134757151686 0)
(0.00212863437142 0.163001886047 0)
(0.0175140926735 0.187473756343 0)
(0.0343269963273 0.207237330725 0)
(0.0523242098477 0.221832138899 0)
(0.0711948364928 0.230925151215 0)
(0.0904614361188 0.234582385626 0)
(0.109664405199 0.233058362741 0)
(0.128391886762 0.226732531481 0)
(0.146283839189 0.216056166178 0)
(0.163029883485 0.201509612163 0)
(0.178367551012 0.183572923081 0)
(0.192068258008 0.162701301798 0)
(0.203935285706 0.139325318667 0)
(0.213783168236 0.113846547064 0)
(0.221433683674 0.0866678341558 0)