/*--------------------------------*- C++ -*----------------------------------*\
| =========                 |                                                 |
| \\      /  F ield         | OpenFOAM: The Open Source CFD Toolbox           |
|  \\    /   O peration     | Version:  v1806                                 |
|   \\  /    A nd           | Web:      www.OpenFOAM.com                      |
|    \\/     M anipulation  |                                                 |
\*---------------------------------------------------------------------------*/
FoamFile
{
    version     2.0;
    format      ascii;
    class       volVectorField;
    location    "100";
    object      U;
}
// * * * * * * * * * * * * * * * * * * * * * * * * * * * * * * * * * * * * * //

dimensions      [0 1 -1 0 0 0 0];


internalField   nonuniform List<vector> 
6400
(
(0.00871221292385 0.0165022045524 0)
(0.0207800868116 0.00939648796148 0)
(0.0273207518684 0.00544991965145 0)
(0.0297143573331 0.00416561827683 0)
(0.0260674097419 0.00342101178262 0)
(0.0196913736306 -0.00220049909118 0)
(-0.0165690487146 -0.0152958199328 0)
(-0.038963732724 -0.0149761845311 0)
(-0.0612641525058 -0.0140130572997 0)
(-0.0845638617102 -0.0135065793625 0)
(-0.107573944431 -0.0130329298683 0)
(-0.130081974358 -0.0124937640055 0)
(-0.151845569011 -0.0118859661933 0)
(-0.172671150036 -0.0112229184751 0)
(-0.192409050121 -0.010521784503 0)
(-0.210950823232 -0.0097993494762 0)
(-0.228225378078 -0.00907059867503 0)
(-0.244194422065 -0.00834820289031 0)
(-0.25884755136 -0.00764236416221 0)
(-0.272197231215 -0.00696085555294 0)
(-0.284273880049 -0.00630918272445 0)
(-0.295121276688 -0.00569083003984 0)
(-0.304792422884 -0.00510755872757 0)
(-0.31334600006 -0.00455973765846 0)
(-0.32084351652 -0.00404668351117 0)
(-0.327347079336 -0.00356700408847 0)
(-0.332918030349 -0.00311887150575 0)
(-0.337615832292 -0.00270022573064 0)
(-0.341497576963 -0.00230890789138 0)
(-0.344617775419 -0.00194271056913 0)
(-0.347027510114 -0.00159928560816 0)
(-0.348775239064 -0.00127559658226 0)
(-0.349904666529 -0.000967689743251 0)
(-0.350456268815 -0.000671453546549 0)
(-0.3504740398 -0.000385170418675 0)
(-0.349985980687 -0.000113607974291 0)
(-0.34902815605 0.000136050744157 0)
(-0.34764681929 0.000360908424196 0)
(-0.345886180598 0.000561269997155 0)
(-0.34378867289 0.00073847511681 0)
(-0.341393828539 0.000894293638024 0)
(-0.338737795703 0.00103075168551 0)
(-0.335853012809 0.00115008461051 0)
(-0.332767950774 0.0012547443741 0)
(-0.329506873707 0.00134737517464 0)
(-0.326089601329 0.00143078127183 0)
(-0.322531272356 0.00150784802308 0)
(-0.318842137203 0.00158147455694 0)
(-0.315027419261 0.00165449445358 0)
(-0.311087291837 0.00172964215575 0)
(-0.307016998471 0.00180952130639 0)
(-0.302807122996 0.00189660605461 0)
(-0.298443984781 0.00199321160905 0)
(-0.293910122701 0.00210146491805 0)
(-0.289184830189 0.00222323079607 0)
(-0.284244723575 0.00236005733362 0)
(-0.279064334071 0.00251311868578 0)
(-0.273616719186 0.00268322967949 0)
(-0.267874067059 0.00287089435575 0)
(-0.261808252813 0.00307642326089 0)
(-0.255391270051 0.00330006218326 0)
(-0.248595443416 0.0035421443531 0)
(-0.24139337464 0.0038032583664 0)
(-0.233757566685 0.00408448303228 0)
(-0.225659767107 0.00438766656755 0)
(-0.217069969527 0.00471580937161 0)
(-0.207954875945 0.00507331698268 0)
(-0.198275595375 0.0054662897529 0)
(-0.187984149684 0.00590281459295 0)
(-0.177019354618 0.00639344437703 0)
(-0.16530253588 0.00695202116342 0)
(-0.152733908038 0.00759578388021 0)
(-0.139192503293 0.00834482260804 0)
(-0.124538872808 0.0092185969902 0)
(-0.108611691527 0.0102281206348 0)
(-0.0911957933707 0.0113698059283 0)
(-0.0720108056808 0.012627319244 0)
(-0.0510517908618 0.0139551187183 0)
(-0.0297772110021 0.0149709662652 0)
(-0.0123642219923 0.0136279393367 0)
(0.00144638659925 0.0265951947414 0)
(0.0132178807239 0.0146226563566 0)
(0.0182675795695 0.00902880156636 0)
(0.000880117899217 -0.00833927663592 0)
(-0.0236716891725 -0.021621156866 0)
(-0.0414609096032 -0.0285384961649 0)
(-0.0640143752922 -0.0335568351764 0)
(-0.0856130016531 -0.0346975270451 0)
(-0.108594274757 -0.0348468861395 0)
(-0.132104639816 -0.0346656795182 0)
(-0.155331925399 -0.0340925407432 0)
(-0.177957403952 -0.0331457840976 0)
(-0.19970481152 -0.0318771948584 0)
(-0.220371869312 -0.0303474549101 0)
(-0.239808110767 -0.0286183178517 0)
(-0.25790897733 -0.0267483457613 0)
(-0.274610344417 -0.0247907322328 0)
(-0.289883062634 -0.0227920927649 0)
(-0.303727376041 -0.0207918324031 0)
(-0.316167308232 -0.0188219504632 0)
(-0.32724521306 -0.0169072202105 0)
(-0.337016667455 -0.0150656907506 0)
(-0.345545942225 -0.0133094396689 0)
(-0.352902144206 -0.0116455178391 0)
(-0.35915617259 -0.0100769776788 0)
(-0.364378393664 -0.00860388205067 0)
(-0.368637021103 -0.00722426664002 0)
(-0.371997351174 -0.00593493714077 0)
(-0.374521359145 -0.00473211147436 0)
(-0.376268149128 -0.00361168518861 0)
(-0.377293450487 -0.00256894218575 0)
(-0.37764877456 -0.00159831996235 0)
(-0.377380810805 -0.000694194504294 0)
(-0.376529522051 0.000144401028311 0)
(-0.375166840671 0.000914865803393 0)
(-0.373359081799 0.0016184103195 0)
(-0.371160729703 0.00225591084495 0)
(-0.36861112866 0.00282874099354 0)
(-0.365746326648 0.00333992647453 0)
(-0.362599344894 0.00379321353633 0)
(-0.359200849736 0.00419284927829 0)
(-0.355579085359 0.00454356294545 0)
(-0.351759630195 0.00485061690998 0)
(-0.347765094476 0.00511983838125 0)
(-0.343614796338 0.00535758901731 0)
(-0.339324440294 0.00557065448738 0)
(-0.334905821892 0.00576607695177 0)
(-0.330366596851 0.0059509681036 0)
(-0.325710144501 0.0061323504011 0)
(-0.320935550501 0.00631704800358 0)
(-0.316037704878 0.00651162300679 0)
(-0.311007503801 0.00672231867277 0)
(-0.3058321275 0.00695496958307 0)
(-0.300495385265 0.00721485386606 0)
(-0.294978121802 0.00750650500281 0)
(-0.289258699974 0.00783353240374 0)
(-0.283313555462 0.0081985130648 0)
(-0.277117809051 0.00860299495071 0)
(-0.270645881564 0.00904761405291 0)
(-0.263872050766 0.00953229595501 0)
(-0.256770872466 0.010056515287 0)
(-0.249317419802 0.0106196123801 0)
(-0.241487308182 0.011221200031 0)
(-0.233256499275 0.0118616906195 0)
(-0.224600839619 0.0125429630203 0)
(-0.215495252578 0.0132691344106 0)
(-0.205912430395 0.0140473077482 0)
(-0.195820868858 0.0148882318702 0)
(-0.185182136221 0.0158069579419 0)
(-0.173947617489 0.0168236077217 0)
(-0.162055098599 0.0179643413491 0)
(-0.149425740085 0.0192621765325 0)
(-0.135962600638 0.0207559490724 0)
(-0.121551214533 0.0224831054322 0)
(-0.106057458258 0.024462405622 0)
(-0.0893127764272 0.0266721321248 0)
(-0.0711075677923 0.0290395557845 0)
(-0.0513445505413 0.0313797315979 0)
(-0.0307761894177 0.0329013863821 0)
(-0.0126351922002 0.0307554362284 0)
(-0.00549596557364 0.0305121685938 0)
(0.000423848819095 0.00976969222413 0)
(-0.0222336335871 -0.0173907800852 -1.37529117162e-28)
(-0.0368452962615 -0.0297392496357 6.99046843732e-29)
(-0.0560159874007 -0.040506071353 4.84767247155e-29)
(-0.0749530846646 -0.0486506681767 -3.79850558594e-29)
(-0.0952249069685 -0.0544956039416 3.12383599488e-29)
(-0.115812747632 -0.0571671785581 -2.71192450612e-29)
(-0.137196552283 -0.0580447251141 0)
(-0.158707854536 -0.0578552281195 0)
(-0.179810422069 -0.0568017633487 0)
(-0.200176279016 -0.0550462993961 0)
(-0.219545784322 -0.0527261740368 0)
(-0.237741244459 -0.0499674857154 0)
(-0.254643864932 -0.0468865915003 0)
(-0.270184300567 -0.0435890007607 0)
(-0.284334426372 -0.0401680981832 0)
(-0.297099891944 -0.0367041195262 0)
(-0.308512985745 -0.0332635883625 0)
(-0.31862581999 -0.0298993057545 0)
(-0.32750398194 -0.0266509212407 0)
(-0.335220961031 -0.0235460441391 0)
(-0.34185345465 -0.0206017910862 0)
(-0.347477750246 -0.0178266268818 0)
(-0.352166988101 -0.0152222967007 0)
(-0.355989617424 -0.0127857230631 0)
(-0.359008642791 -0.0105107526821 0)
(-0.361281505651 -0.00838968134395 0)
(-0.362861293873 -0.00641433122403 0)
(-0.363795582132 -0.00457641978642 -7.08677575763e-29)
(-0.364129720969 -0.00286788523115 7.11365045337e-29)
(-0.363904308705 -0.00128158110397 0)
(-0.363149722653 0.000185547520083 0)
(-0.36193598894 0.00152622700735 0)
(-0.360297534022 0.00274011957016 0)
(-0.358264329404 0.00383914714846 0)
(-0.355870332814 0.00483261302183 0)
(-0.353148467684 0.00572729354405 0)
(-0.350131033735 0.00652872110841 0)
(-0.346849007427 0.00724251577314 0)
(-0.343331748722 0.00787487176954 0)
(-0.339606666147 0.00843280046902 0)
(-0.335698839295 0.00892426871608 0)
(-0.331630599661 0.0093582124398 0)
(-0.327421092862 0.00974445119125 0)
(-0.323085862847 0.0100934882283 0)
(-0.318636510899 0.0104162724358 0)
(-0.314080471698 0.0107239456483 0)
(-0.309420925029 0.0110276493609 0)
(-0.304656826737 0.0113383635874 0)
(-0.299783024286 0.0116667784731 0)
(-0.294790422107 0.0120231164078 0)
(-0.289666191233 0.0124169042326 0)
(-0.284394048639 0.0128566726285 0)
(-0.278954652279 0.0133496706697 0)
(-0.273326140324 0.0139016371054 0)
(-0.267484801579 0.014516714845 0)
(-0.261405812976 0.0151974840313 0)
(-0.255063958887 0.0159451150576 0)
(-0.248434255941 0.0167595799312 0)
(-0.241492448806 0.0176399620442 0)
(-0.234215365366 0.0185848901158 0)
(-0.226581129602 0.0195931868167 0)
(-0.218569188625 0.0206647252225 0)
(-0.210160061459 0.0218014837396 0)
(-0.201334657713 0.0230087008062 0)
(-0.192073079468 0.0242959869416 0)
(-0.182352908927 0.025678316529 0)
(-0.172146939047 0.0271771611115 0)
(-0.161420534328 0.0288215350609 0)
(-0.150129022732 0.0306488353268 0)
(-0.138215045929 0.0327053017348 0)
(-0.125605535018 0.0350441427469 0)
(-0.112208775781 0.0377166367338 0)
(-0.0979113667821 0.0407523790169 0)
(-0.0825740386868 0.0441271386025 0)
(-0.0660202546181 0.0477173742712 0)
(-0.048066575 0.0511632904346 0)
(-0.0291320932348 0.0532432557443 0)
(-0.0112658531403 0.0506534097982 0)
(-0.0123923527693 0.0189747574337 0)
(-0.026215242735 -0.0113949508461 0)
(-0.0414401525234 -0.0307899591446 0)
(-0.0586656944365 -0.0463226163743 0)
(-0.0770724986745 -0.0589101858221 0)
(-0.0956820727277 -0.0680217764222 0)
(-0.114791308648 -0.0742670988607 0)
(-0.134081669327 -0.077515841535 0)
(-0.153553330758 -0.0785987908682 0)
(-0.172776765126 -0.0781116378519 0)
(-0.191414671528 -0.0763847691272 0)
(-0.209217096895 -0.0736853566749 0)
(-0.225989994599 -0.0702313286746 0)
(-0.24160529737 -0.0662131364402 0)
(-0.255986974584 -0.0617999616408 0)
(-0.269102922666 -0.0571412278891 0)
(-0.280956521863 -0.0523663303096 0)
(-0.291578659509 -0.0475839596202 0)
(-0.301020167706 -0.0428817660305 0)
(-0.309344817151 -0.0383267406895 0)
(-0.316623192516 -0.0339664655321 0)
(-0.322927636259 -0.0298311682509 0)
(-0.328328448517 -0.0259364337434 0)
(-0.332891187586 -0.0222862145621 0)
(-0.336675155839 -0.018875888738 0)
(-0.339733071254 -0.0156952041692 0)
(-0.342111262082 -0.0127308265262 0)
(-0.343850734365 -0.00996851946702 0)
(-0.344988201892 -0.0073942576178 0)
(-0.34555728256 -0.0049949699772 0)
(-0.345590010782 -0.00275949610932 0)
(-0.345112739561 -0.000681036045376 0)
(-0.344141240698 0.00123752337659 0)
(-0.342768012218 0.00299387253229 0)
(-0.340983987109 0.00460027075033 0)
(-0.338825603366 0.00606418450821 0)
(-0.336322684115 0.0073913629856 0)
(-0.333506518869 0.00858755416733 0)
(-0.330408367364 0.00965874897839 0)
(-0.327058817066 0.0106117025358 0)
(-0.323487304665 0.0114542945698 0)
(-0.319721636972 0.0121957564874 0)
(-0.315787469357 0.0128467555271 0)
(-0.311707742122 0.0134193363167 0)
(-0.307502118552 0.0139267330522 0)
(-0.303186496071 0.014383104124 9.20648823507e-29)
(-0.298772656142 0.0148032474849 -9.324733635e-29)
(-0.294268083579 0.0152023495279 0)
(-0.289675933192 0.0155957710751 0)
(-0.284995086063 0.015998837804 0)
(-0.280220235652 0.0164265730833 0)
(-0.275341985703 0.0168933397197 0)
(-0.27034699893 0.0174124017377 0)
(-0.265218275525 0.0179954813668 0)
(-0.259935628883 0.0186523974295 0)
(-0.254476365536 0.0193908512306 0)
(-0.248816100097 0.0202163547245 0)
(-0.242929598309 0.0211322603127 1.28264380071e-28)
(-0.236791558323 0.0221398510001 -1.30787256881e-28)
(-0.230377311655 0.023238516311 0)
(-0.223663458017 0.024426101717 0)
(-0.216628455805 0.0256995285169 0)
(-0.209253110151 0.0270557308463 0)
(-0.201520855651 0.0284928558073 0)
(-0.193417705596 0.0300116323386 0)
(-0.184931669681 0.0316169094846 0)
(-0.176051624718 0.0333192041708 0)
(-0.166765948242 0.0351360412822 0)
(-0.15706069508 0.0370938272756 0)
(-0.146917259083 0.0392295529252 0)
(-0.136310438366 0.0415914614584 0)
(-0.125206122344 0.0442396309791 0)
(-0.11355675619 0.0472444431882 0)
(-0.101296055187 0.0506770818361 0)
(-0.0883347122772 0.0545915686198 0)
(-0.0745608363686 0.0589887820078 0)
(-0.0598189473828 0.0637499357738 0)
(-0.043814341092 0.0684819394964 0)
(-0.0269314238508 0.0716729166269 0)
(-0.00985813298162 0.0693846414961 0)
(-0.0193422853625 0.00253565203576 0)
(-0.0343234543619 -0.0268831408073 0)
(-0.052298416451 -0.0473799555178 0)
(-0.0708203253453 -0.0640329382829 0)
(-0.0893291909136 -0.0771614980905 0)
(-0.107653090456 -0.0865952572671 0)
(-0.125844012662 -0.0928168103847 0)
(-0.143799235219 -0.0960626831292 0)
(-0.161468987673 -0.0969493201237 0)
(-0.178609151064 -0.0959741976402 0)
(-0.195015018395 -0.093510851563 0)
(-0.210522020074 -0.0898816524637 0)
(-0.225005044492 -0.0853616383288 0)
(-0.238385528153 -0.0801925490302 0)
(-0.250624795767 -0.0745872885547 0)
(-0.261718893846 -0.0687313285381 0)
(-0.271691960687 -0.0627825192264 0)
(-0.280589326676 -0.0568705848142 0)
(-0.288470608541 -0.0510971576251 0)
(-0.295403208041 -0.0455368359964 0)
(-0.301456665206 -0.0402394223469 0)
(-0.306698112974 -0.0352332093262 0)
(-0.311189144267 -0.0305289956718 0)
(-0.314983618091 -0.0261243581621 0)
(-0.318127317816 -0.0220078748155 0)
(-0.320658211318 -0.0181629174745 0)
(-0.32260733127 -0.0145707949273 0)
(-0.324001914253 -0.0112130695437 0)
(-0.324862241782 -0.00807282300086 0)
(-0.325210244636 -0.00513623452223 0)
(-0.325064553296 -0.00239365815778 -7.84749242116e-29)
(-0.324434237342 0.000157845578293 7.90571977472e-29)
(-0.32338226745 0.00251162785681 0)
(-0.321899500691 0.00467548900344 0)
(-0.320015833695 0.0066642444939 0)
(-0.317760607985 0.00848186388807 0)
(-0.315164134224 0.010132757304 0)
(-0.312258380271 0.0116217794357 0)
(-0.309075964908 0.0129548060676 0)
(-0.305649392525 0.0141392484213 0)
(-0.302010338465 0.0151843957063 0)
(-0.298188942769 0.0161015736729 0)
(-0.294213078114 0.016904121733 0)
(-0.290107613763 0.0176072038956 0)
(-0.285893750233 0.018227512528 0)
(-0.281588513067 0.0187829349312 0)
(-0.277204457738 0.0192922526145 0)
(-0.272749568008 0.0197748859668 0)
(-0.268227269076 0.0202506482094 0)
(-0.263636462937 0.0207394268073 0)
(-0.258971541171 0.0212607384921 0)
(-0.254222414653 0.0218331586636 0)
(-0.249374666049 0.0224737119841 0)
(-0.244409934331 0.0231973311937 0)
(-0.239306567633 0.0240164686991 0)
(-0.234040477764 0.0249408559333 0)
(-0.228586069092 0.0259773563612 0)
(-0.222917130822 0.0271298603372 0)
(-0.217007683014 0.0283992533678 0)
(-0.210832824016 0.0297835681176 0)
(-0.204369637684 0.0312784549713 0)
(-0.197598107931 0.0328780287755 0)
(-0.190501880544 0.0345760743823 0)
(-0.183068718457 0.0363674991969 0)
(-0.175290591047 0.0382498928816 0)
(-0.167163260596 0.0402254064972 0)
(-0.158685037509 0.0423030278441 0)
(-0.14985591998 0.0444997856661 0)
(-0.140676256104 0.0468435602638 0)
(-0.131144032991 0.0493756388183 0)
(-0.121253459333 0.0521504895122 0)
(-0.110993751526 0.0552369628555 0)
(-0.100342759875 0.0587194233007 0)
(-0.089260614105 0.0626872898302 0)
(-0.077683704091 0.0672200854833 0)
(-0.0655283533335 0.072352183346 0)
(-0.0526843212331 0.0779914687108 0)
(-0.0387034722847 0.0838182985962 0)
(-0.0242394140379 0.0881865617361 0)
(-0.00837511361074 0.0864606587445 0)
(-0.0207819807559 -0.0224233333515 0)
(-0.0372457311922 -0.046528064772 0)
(-0.0572773362868 -0.0664061962324 0)
(-0.0767040286626 -0.0827485557266 0)
(-0.0953638574641 -0.0954559479719 0)
(-0.113344583756 -0.104535052454 0)
(-0.130708428502 -0.110333006781 0)
(-0.147456821458 -0.113163013141 0)
(-0.16357808596 -0.113522829295 0)
(-0.178956315427 -0.111859761202 0)
(-0.19348262184 -0.108560950973 0)
(-0.207063787277 -0.103975916013 0)
(-0.219631047506 -0.0984154532645 0)
(-0.231147104487 -0.0921576987165 0)
(-0.241604739193 -0.0854492515911 0)
(-0.251024555122 -0.0785048409274 0)
(-0.25945030639 -0.0715060524501 0)
(-0.266942811117 -0.0646001320505 0)
(-0.273572964177 -0.0578997347549 0)
(-0.279414722227 -0.0514842004292 0)
(-0.284538858802 -0.0454025262626 0)
(-0.289008181114 -0.0396778435996 0)
(-0.292874591412 -0.0343128282643 0)
(-0.296177774735 -0.0292954667612 0)
(-0.29894612492 -0.0246046540833 0)
(-0.301198330288 -0.0202149833959 0)
(-0.302945882534 -0.0161005576027 0)
(-0.304195955475 -0.0122373865838 0)
(-0.304952640449 -0.00860537190241 0)
(-0.305221382624 -0.00519028433888 0)
(-0.305005866921 -0.00198507864149 0)
(-0.30430425921 0.00101036895111 0)
(-0.303170886059 0.00379513952307 0)
(-0.301584829388 0.00637418462755 0)
(-0.299580916767 0.00875178764606 0)
(-0.297187862477 0.0109287689587 0)
(-0.294439233386 0.0129066320857 0)
(-0.291371183479 0.0146884121551 0)
(-0.288021164497 0.0162793680638 0)
(-0.284426850325 0.0176874161866 0)
(-0.280625139915 0.0189233454358 0)
(-0.276651173612 0.0200008207613 0)
(-0.272537349566 0.0209361892013 0)
(-0.268312403891 0.0217481405452 0)
(-0.264000665094 0.0224573005258 0)
(-0.259621572972 0.0230858413651 0)
(-0.255189470861 0.0236571492202 0)
(-0.250713582855 0.0241955246849 0)
(-0.246198040617 0.0247258310064 0)
(-0.241641863105 0.0252730069909 0)
(-0.237038902762 0.0258614181156 0)
(-0.232377879025 0.0265141166306 0)
(-0.227642652858 0.0272521304272 0)
(-0.222812822412 0.0280938812894 0)
(-0.217864590078 0.0290547399718 0)
(-0.212771759447 0.0301466560295 0)
(-0.207506726497 0.0313778023987 0)
(-0.202041447854 0.0327522667672 0)
(-0.196348452533 0.0342699314046 0)
(-0.190402001 0.0359266826512 0)
(-0.184179357095 0.0377150639478 0)
(-0.177662022958 0.0396253194466 0)
(-0.170836748249 0.0416467651078 0)
(-0.163696005696 0.0437695499416 0)
(-0.156238311814 0.0459863849949 0)
(-0.148468303884 0.0482947146533 0)
(-0.140394639783 0.0507007241841 0)
(-0.132029898859 0.0532190340121 0)
(-0.12338987389 0.055876753552 0)
(-0.114489234884 0.0587179094828 0)
(-0.105340165108 0.0618004591158 0)
(-0.0959544632539 0.0651978275951 0)
(-0.0863333936348 0.0690075970112 0)
(-0.0764630124218 0.0733364609747 0)
(-0.0663032084167 0.0782884199778 0)
(-0.055789986704 0.0839370410954 0)
(-0.0449029818987 0.0902224822208 0)
(-0.0329505422985 0.0969432791322 0)
(-0.0211706528531 0.102479092875 0)
(-0.00682904087627 0.1015371832 0)
(-0.0187169414133 -0.0451840987117 0)
(-0.0368624123695 -0.0683728042887 0)
(-0.0585830872334 -0.0867093020199 0)
(-0.0784416598556 -0.101936771183 0)
(-0.0970672538343 -0.113662917218 0)
(-0.114616622847 -0.121908398282 0)
(-0.131202575196 -0.126925041099 0)
(-0.14689023307 -0.129017210414 0)
(-0.161710692613 -0.128604838086 0)
(-0.17563012929 -0.126098562114 0)
(-0.188607317976 -0.121883544771 1.08995273159e-28)
(-0.200604161944 -0.116321046095 -1.06605036523e-28)
(-0.211597400671 -0.109743813274 0)
(-0.221586838004 -0.102456291274 0)
(-0.23059741495 -0.0947322416741 0)
(-0.238678411889 -0.0868114359424 0)
(-0.245898829723 -0.078895798245 0)
(-0.252339967377 -0.0711461931394 0)
(-0.258086418913 -0.0636810691067 0)
(-0.26321722825 -0.0565777907131 0)
(-0.267798758032 -0.0498768318162 0)
(-0.27188038799 -0.0435883585371 0)
(-0.275493201839 -0.0377000983396 0)
(-0.278651483124 -0.0321854514548 0)
(-0.281356254149 -0.0270108520326 0)
(-0.283599440335 -0.0221416141665 0)
(-0.285368442821 -0.017546108855 0)
(-0.286648881961 -0.0131979255318 0)
(-0.287428292632 -0.00907760955582 0)
(-0.287697507706 -0.00517411016865 0)
(-0.287449160485 -0.00148580526139 0)
(-0.286681146293 0.00198231972088 8.75380710298e-29)
(-0.285429296332 0.00522868418449 -8.69538668881e-29)
(-0.283682574512 0.00825317487123 0)
(-0.281477810055 0.0110487005907 0)
(-0.278848168272 0.0136100421718 0)
(-0.275833026633 0.0159345330785 0)
(-0.272475222753 0.0180227505841 0)
(-0.268819543712 0.0198790461753 0)
(-0.264911362454 0.0215118250666 0)
(-0.26079533298 0.0229335801126 0)
(-0.256514083666 0.0241606901925 0)
(-0.25210693554 0.0252130288159 0)
(-0.247608759594 0.0261134610376 0)
(-0.243049114036 0.026887322906 0)
(-0.238451740166 0.0275619498287 0)
(-0.233834370638 0.0281662593368 0)
(-0.229208698186 0.0287303224543 0)
(-0.224580341314 0.0292848307133 0)
(-0.219948749191 0.0298604015458 0)
(-0.215307140757 0.0304867555928 0)
(-0.210642662885 0.0311918715212 0)
(-0.205936905385 0.0320012276825 0)
(-0.201166759093 0.0329371573885 0)
(-0.196305474708 0.0340182492822 0)
(-0.19132375842 0.0352587271139 0)
(-0.186190862347 0.0366678251414 0)
(-0.180875759801 0.0382492980868 0)
(-0.175348505293 0.0400012929039 0)
(-0.169581827302 0.0419166232069 0)
(-0.163552760424 0.0439835893626 0)
(-0.157244158029 0.0461871338346 0)
(-0.150645978774 0.0485102670853 0)
(-0.143755822817 0.0509363592143 0)
(-0.136579272279 0.0534512554818 0)
(-0.129131876208 0.0560446481809 0)
(-0.121433848699 0.058719038351 0)
(-0.113511665799 0.0614843448359 0)
(-0.105398727124 0.0643638803052 0)
(-0.0971275017451 0.0674042759004 0)
(-0.0887270061561 0.0706654591499 0)
(-0.0802324368412 0.0742206925811 0)
(-0.0716653667828 0.0781816698661 0)
(-0.0630384155022 0.0826734626996 0)
(-0.0543333233834 0.0878231870981 0)
(-0.0454852043153 0.0937465224462 0)
(-0.0366260276091 0.100425174495 0)
(-0.0266884567376 0.107765104612 0)
(-0.0177864898648 0.114341971357 0)
(-0.00522760361888 0.114359392142 0)
(-0.0168076578432 -0.0699348663868 0)
(-0.035520024207 -0.0910634857913 0)
(-0.0578049974267 -0.107488796458 0)
(-0.0775291624618 -0.121190720539 0)
(-0.0958613643959 -0.131591677272 0)
(-0.112870358826 -0.138691039894 0)
(-0.128698454357 -0.142668132064 0)
(-0.143441982214 -0.143797067236 0)
(-0.15716207735 -0.142442293892 0)
(-0.169875449752 -0.138982602874 0)
(-0.181587204901 -0.133793597374 0)
(-0.19230182838 -0.127240943197 0)
(-0.202035777876 -0.119673181189 0)
(-0.210826320841 -0.111417224077 0)
(-0.218734455301 -0.102771664969 0)
(-0.225842801656 -0.0939988592996 0)
(-0.232248120442 -0.0853168184861 0)
(-0.238050231736 -0.0768929763972 0)
(-0.243339977455 -0.0688417905983 0)
(-0.248189113313 -0.0612272503721 0)
(-0.252644277606 -0.0540700587445 0)
(-0.256725987072 -0.0473580995676 0)
(-0.260431201943 -0.0410580328389 0)
(-0.263739845034 -0.0351262061488 0)
(-0.266621271603 -0.0295173738028 0)
(-0.269040689394 -0.0241906765447 0)
(-0.27096514279 -0.019113215362 0)
(-0.272362778357 -0.0142611060067 0)
(-0.273210971853 -0.00961993631085 0)
(-0.273491319101 -0.00518474249107 0)
(-0.273190721754 -0.000960187029584 0)
(-0.272314022401 0.00304199007172 0)
(-0.27088571684 0.006808785896 0)
(-0.268909032635 0.0103309774688 0)
(-0.266421390365 0.0135912132204 0)
(-0.263461930153 0.0165771671214 0)
(-0.260076228602 0.0192811460981 0)
(-0.256314084877 0.0217006247727 0)
(-0.252227994777 0.0238386214651 0)
(-0.247871644354 0.0257038280438 0)
(-0.243298376035 0.0273104654573 0)
(-0.238559601948 0.0286778891004 0)
(-0.233703237281 0.0298300137433 0)
(-0.228772306196 0.0307946557678 0)
(-0.223803876308 0.0316028792449 1.11582758034e-28)
(-0.218828379947 0.0322883849436 -1.1350953288e-28)
(-0.213869239648 0.032886912741 0)
(-0.208942625143 0.0334355823198 0)
(-0.204057209677 0.0339721062482 0)
(-0.199213946702 0.0345338762126 0)
(-0.194406038474 0.0351569945018 0)
(-0.189619291561 0.0358753484933 0)
(-0.184832915632 0.0367197680385 0)
(-0.180020632728 0.0377172153759 0)
(-0.175151911292 0.038889906127 0)
(-0.17019322033 0.0402543782548 0)
(-0.165109362649 0.0418206391458 0)
(-0.15986507939 0.0435915387356 0)
(-0.154426879022 0.045562719949 0)
(-0.148765149703 0.0477228374517 0)
(-0.142856171744 0.0500545057167 0)
(-0.136683735601 0.0525356686958 0)
(-0.1302411092 0.0551407671045 0)
(-0.123531600091 0.0578439147604 0)
(-0.116567315369 0.0606224423666 0)
(-0.109378352216 0.0634529397414 0)
(-0.101996400527 0.0663346443829 0)
(-0.0944642578998 0.0692701477491 0)
(-0.0868355555587 0.072274488481 0)
(-0.0791626943642 0.0753989979652 0)
(-0.0714916381058 0.0787064785783 0)
(-0.0638863429356 0.0822635816819 0)
(-0.0563819833097 0.0861970789088 0)
(-0.049021780219 0.0906525994851 0)
(-0.0418115195837 0.0957800030997 0)
(-0.0346546814641 0.101732053386 0)
(-0.0279043772744 0.108555176549 0)
(-0.019990638457 0.116207983581 0)
(-0.0141059315409 0.123610215528 0)
(-0.00356957220867 0.124719300856 0)
(-0.0153086705379 -0.0941836266685 0)
(-0.0338932396122 -0.113494769554 0)
(-0.0558543134353 -0.128079877595 0)
(-0.0749915718938 -0.14012769909 0)
(-0.0927834088539 -0.14904246397 0)
(-0.109137503678 -0.154825795797 0)
(-0.124206238449 -0.157609725785 0)
(-0.138090396623 -0.157638572524 0)
(-0.150866097081 -0.155236037883 0)
(-0.162579620424 -0.150755102247 0)
(-0.17326817655 -0.144561953135 0)
(-0.182971028261 -0.13702660752 0)
(-0.191741767675 -0.128513659081 0)
(-0.199655998645 -0.119372863722 0)
(-0.206811941564 -0.10992645656 0)
(-0.213323918522 -0.100454724176 0)
(-0.219309660647 -0.0911825394074 0)
(-0.224874923248 -0.0822705009451 0)
(-0.230099815133 -0.0738134629898 0)
(-0.235030517215 -0.0658471271867 0)
(-0.239677985782 -0.0583609968796 0)
(-0.244022919336 -0.0513144142693 0)
(-0.248024176337 -0.044652150594 0)
(-0.251628903502 -0.0383170377103 0)
(-0.254781115846 -0.0322584216539 0)
(-0.257428087538 -0.0264366372689 0)
(-0.259525792655 -0.0208246040273 0)
(-0.261035452496 -0.0154071208791 0)
(-0.261930846466 -0.0101795521889 0)
(-0.262191195375 -0.00514600031419 0)
(-0.261802158603 -0.000318133004087 0)
(-0.260793827741 0.00428519072051 0)
(-0.259154551841 0.00863705506788 9.29167611685e-29)
(-0.256913713967 0.0127141541232 -9.22888080639e-29)
(-0.254107781358 0.0164909989022 0)
(-0.250780303354 0.019948093695 0)
(-0.246981283718 0.0230721711654 0)
(-0.242765689337 0.0258568545257 0)
(-0.238192009888 0.0283030467965 0)
(-0.233320734587 0.0304190067245 0)
(-0.228212732466 0.0322201048963 0)
(-0.222927542746 0.0337283132478 0)
(-0.217521665344 0.0349715199373 0)
(-0.212047001141 0.0359827672062 0)
(-0.206549568663 0.036799475473 0)
(-0.201068523978 0.0374626572169 0)
(-0.195635385684 0.0380160708118 0)
(-0.190273330724 0.038505256874 0)
(-0.184996523583 0.0389764437758 0)
(-0.179809604458 0.0394753793225 0)
(-0.17470756874 0.0400461760925 0)
(-0.169676213193 0.040730214377 0)
(-0.164693111865 0.0415650674256 0)
(-0.159728910787 0.0425833890179 0)
(-0.154748777469 0.0438116488172 0)
(-0.149714003144 0.0452688810355 0)
(-0.144583771606 0.0469657483052 0)
(-0.139317464178 0.0489036866835 0)
(-0.133876967734 0.0510751155524 0)
(-0.128229466259 0.0534632609049 0)
(-0.12235000186 0.0560431831045 0)
(-0.116222887311 0.0587838880834 0)
(-0.109844698309 0.0616485299613 0)
(-0.103226132664 0.0645984261382 0)
(-0.0963818876404 0.0676024609199 0)
(-0.0893647404427 0.0706143071168 0)
(-0.0822125004443 0.073633020463 0)
(-0.0749907507893 0.0766514765551 0)
(-0.0677763915834 0.0796692434202 0)
(-0.0606423180613 0.0827455564792 0)
(-0.053651625634 0.0859497341358 0)
(-0.0469113137347 0.0893357872061 0)
(-0.0404565514096 0.093046192155 0)
(-0.0343700589565 0.0972462323963 0)
(-0.0286877163267 0.10211675515 0)
(-0.0232587325392 0.107832866692 0)
(-0.0186895159713 0.114543169564 0)
(-0.0128762881735 0.1221949598 0)
(-0.0101034514137 0.130137855033 0)
(-0.00183670934762 0.132419583519 0)
(-0.0140053359894 -0.116983948849 0)
(-0.0320417776274 -0.135027178578 0)
(-0.0531944298724 -0.147990855194 0)
(-0.0714768650722 -0.15842714148 0)
(-0.0885458480331 -0.165836314917 0)
(-0.104152054073 -0.170248877822 0)
(-0.118454648392 -0.171775774341 0)
(-0.131542793098 -0.170641974307 0)
(-0.143497058586 -0.16714383098 0)
(-0.154380426111 -0.161617143109 0)
(-0.164253571944 -0.154424273634 0)
(-0.173185618838 -0.14594445246 0)
(-0.181264683414 -0.136561889992 0)
(-0.18860211489 -0.126650047798 0)
(-0.19532786403 -0.116550914853 0)
(-0.201577471905 -0.106552821032 0)
(-0.207473865101 -0.0968722061573 0)
(-0.213109709711 -0.0876448302063 0)
(-0.218535943164 -0.0789292018231 0)
(-0.223759477807 -0.0707209383834 0)
(-0.228749439337 -0.0629734625957 0)
(-0.23344862738 -0.0556193665353 0)
(-0.23778606237 -0.0485880047002 0)
(-0.241688166413 -0.0418172612334 0)
(-0.245086492219 -0.0352595419274 0)
(-0.247922263808 -0.0288834746995 0)
(-0.250148153221 -0.0226728998833 0)
(-0.251727138851 -0.0166245150887 0)
(-0.252632852886 -0.0107450342992 0)
(-0.252845144448 -0.00504861998136 0)
(-0.252351141625 0.00044500154507 0)
(-0.251185704119 0.00570907030324 0)
(-0.249336638402 0.0107026868062 0)
(-0.246838007361 0.0153883115438 0)
(-0.243726668494 0.0197325381682 0)
(-0.240047927888 0.0237084208293 0)
(-0.235854073526 0.0272965895519 0)
(-0.231202990128 0.0304861078763 0)
(-0.226156736485 0.0332749354172 0)
(-0.220780043029 0.0356699975905 0)
(-0.215138729935 0.0376868987561 0)
(-0.209298069523 0.0393493669018 0)
(-0.203321167991 0.0406885388625 0)
(-0.197267457223 0.0417421763289 0)
(-0.19119135771 0.0425538445087 0)
(-0.185141065264 0.0431720166135 0)
(-0.179157349754 0.0436490383847 0)
(-0.173272285644 0.0440399022122 0)
(-0.16750797596 0.0444008502007 0)
(-0.161875502058 0.0447878996795 0)
(-0.156374405453 0.0452553489733 0)
(-0.150992863177 0.045854287444 0)
(-0.145708578737 0.0466310239363 0)
(-0.140490083364 0.0476255203971 0)
(-0.135298423255 0.0488696424573 0)
(-0.130089384445 0.0503855230576 0)
(-0.124815770868 0.0521848187493 0)
(-0.119430910609 0.0542670839427 0)
(-0.113891100126 0.0566208656266 0)
(-0.10815945491 0.059222378442 0)
(-0.102209463877 0.062036381956 0)
(-0.0960253665584 0.0650206921618 0)
(-0.0896064022638 0.0681242358461 0)
(-0.0829764521206 0.0712899135567 0)
(-0.0761394859499 0.0744829806529 0)
(-0.0691944694742 0.0776170972375 0)
(-0.0621633888325 0.0806986704928 0)
(-0.0551503185437 0.0837083127079 0)