/*--------------------------------*- C++ -*----------------------------------*\
| =========                 |                                                 |
| \\      /  F ield         | OpenFOAM: The Open Source CFD Toolbox           |
|  \\    /   O peration     | Version:  v1806                                 |
|   \\  /    A nd           | Web:      www.OpenFOAM.com                      |
|    \\/     M anipulation  |                                                 |
\*---------------------------------------------------------------------------*/
FoamFile
{
    version     2.0;
    format      ascii;
    class       volVectorField;
    location    "100";
    object      Ua;
}
// * * * * * * * * * * * * * * * * * * * * * * * * * * * * * * * * * * * * * //

dimensions      [0 1 -1 0 0 0 0];


internalField   nonuniform List<vector> 
6400
(
(0.000588985221845 0.23235015298 0)
(-0.382324379438 0.671171634496 0)
(-0.580809220386 1.00043680475 0)
(-0.849747667898 1.0534877335 0)
(-1.07377467634 0.761345205076 0)
(-1.2293817953 0.531051300644 0)
(-1.2487351527 -0.742953092367 0)
(-1.46036128908 -1.07145768452 0)
(-1.59632167704 -1.43124109221 0)
(-1.69220813368 -1.82805118636 0)
(-1.76232534041 -2.23682454234 0)
(-1.81454158251 -2.64720102097 0)
(-1.85360490494 -3.05445995109 0)
(-1.88228080964 -3.4561347477 0)
(-1.90223083569 -3.85050481076 0)
(-1.91463373154 -4.236119713 0)
(-1.92053023215 -4.61176758233 0)
(-1.92092492191 -4.97653819363 0)
(-1.91675160453 -5.32984052371 0)
(-1.90881768974 -5.67134233526 0)
(-1.89777958069 -6.00089387333 0)
(-1.8841551553 -6.31845251718 0)
(-1.86835134222 -6.62404601321 0)
(-1.85069309273 -6.917746214 0)
(-1.83144434419 -7.19966767282 0)
(-1.8108237338 -7.4699583479 0)
(-1.78901544665 -7.72880418625 0)
(-1.76618161671 -7.97642291839 0)
(-1.74247090996 -8.21307536701 0)
(-1.71805155507 -8.4390720794 0)
(-1.6930693155 -8.65481099378 0)
(-1.66766997039 -8.86052618546 0)
(-1.64082129914 -9.0551775378 0)
(-1.61073971748 -9.23232264389 0)
(-1.57801465215 -9.37525227281 0)
(-1.54452367694 -9.47139093393 0)
(-1.51144099471 -9.52251668126 0)
(-1.4794768186 -9.53181225279 0)
(-1.448924519 -9.50304446893 0)
(-1.41984721534 -9.44015429994 0)
(-1.39223186798 -9.34708813861 0)
(-1.36605567373 -9.22773273766 0)
(-1.34129119883 -9.08586349648 0)
(-1.31789253509 -8.92508529169 0)
(-1.29578687299 -8.74876765208 0)
(-1.27487576739 -8.55999438295 0)
(-1.2550421391 -8.36152387164 0)
(-1.23615822873 -8.15577019539 0)
(-1.21809294999 -7.94479207122 0)
(-1.20071809976 -7.73030017286 0)
(-1.18391367096 -7.51366924391 0)
(-1.1675719569 -7.29596596329 0)
(-1.15160020292 -7.07797756502 0)
(-1.13592180157 -6.86025103953 0)
(-1.12047609576 -6.64312797523 0)
(-1.10521741062 -6.42678469999 0)
(-1.09011339717 -6.21126467293 0)
(-1.07514317888 -5.99651271639 0)
(-1.06029497174 -5.7823999406 0)
(-1.04556328996 -5.56874795157 0)
(-1.03094528941 -5.35534244703 0)
(-1.01643617078 -5.14194309755 0)
(-1.0020235266 -4.92828091758 0)
(-0.987680444366 -4.71404867317 0)
(-0.973357864322 -4.49887759021 0)
(-0.958975869527 -4.28230566154 0)
(-0.944414881209 -4.06373312523 0)
(-0.929507493456 -3.84237093006 0)
(-0.9140276966 -3.61717492032 0)
(-0.897690858054 -3.38678376915 0)
(-0.880126142698 -3.14943628028 0)
(-0.860938104375 -2.90298082835 0)
(-0.839553270786 -2.64477461327 0)
(-0.815732450391 -2.37223064668 0)
(-0.788326718044 -2.08205309175 0)
(-0.758747368705 -1.77339812945 0)
(-0.719647641649 -1.43756342794 0)
(-0.680851303347 -1.08129034864 0)
(-0.557324517021 -0.623021372697 0)
(-0.416218925652 -0.159484736668 0)
(-0.201570014907 -0.205472428862 0)
(-0.354739547107 -0.419792611451 0)
(-0.670548052474 -0.520568076429 0)
(-0.822140856417 -1.03978685424 0)
(-1.10084232271 -0.84498028143 0)
(-1.38823054446 -0.612110483188 0)
(-1.66109048105 -0.289977231999 0)
(-1.89070753509 -0.0100894866793 0)
(-2.09670343744 0.240472049698 0)
(-2.28558379209 0.480009323736 0)
(-2.45787132214 0.717087484361 0)
(-2.61290096153 0.95483739165 0)
(-2.75080715553 1.19396667666 0)
(-2.87226444534 1.43427729291 0)
(-2.97807265967 1.67532388809 0)
(-3.0690540031 1.91662182597 0)
(-3.14609542956 2.15769798745 0)
(-3.21016264334 2.39807407579 0)
(-3.26225881796 2.63727289145 0)
(-3.30336107011 2.87482349736 0)
(-3.3343739228 3.11028683422 0)
(-3.35610979021 3.34326453353 0)
(-3.36928961604 3.57341400431 0)
(-3.37455243314 3.80044695263 0)
(-3.37246561981 4.02413599292 0)
(-3.36353448056 4.24431010024 0)
(-3.34821105918 4.46085674431 0)
(-3.32690074009 4.67371521777 0)
(-3.29997968221 4.88286389745 0)
(-3.26777845489 5.0883269671 0)
(-3.23075799503 5.29007629271 0)
(-3.18956674296 5.48815288084 0)
(-3.14713759618 5.68173057653 0)
(-3.10375151985 5.85134280476 0)
(-3.05646608683 5.98362238649 0)
(-3.00315543727 6.07229279389 0)
(-2.94393905746 6.12179037235 0)
(-2.87948240816 6.13633716367 0)
(-2.81048564442 6.12002751427 0)
(-2.73759327413 6.07689060134 0)
(-2.66141664871 6.01084239382 0)
(-2.58256312132 5.92559857981 0)
(-2.50163910056 5.82459171187 0)
(-2.41923676837 5.71092031652 0)
(-2.33591581022 5.58731659611 0)
(-2.25219117278 5.45613740957 0)
(-2.16852616024 5.31936223287 0)
(-2.0853297259 5.17860876211 0)
(-2.00295516989 5.03515091751 0)
(-1.92170012529 4.88995064363 0)
(-1.84180811367 4.74368728435 0)
(-1.76347141631 4.5967979202 0)
(-1.68683543396 4.44951283939 0)
(-1.61200309581 4.30190107099 0)
(-1.53903977401 4.15390869177 0)
(-1.46797735006 4.0054048631 0)
(-1.39881857788 3.85621624237 0)
(-1.33154043738 3.70616552194 0)
(-1.26609770868 3.55509382908 0)
(-1.2024251944 3.40288481104 0)
(-1.14043976543 3.24946949151 0)
(-1.08004054994 3.09483152698 0)
(-1.02110865578 2.93899131209 0)
(-0.963504721647 2.78199032447 0)
(-0.907066067412 2.62385486099 0)
(-0.851601453497 2.46456158171 0)
(-0.796884931366 2.30398895427 0)
(-0.74264788762 2.14187978059 0)
(-0.688565785032 1.97780519605 0)
(-0.634255502317 1.81115401916 0)
(-0.579235042287 1.64115378969 0)
(-0.523006611276 1.46690532919 0)
(-0.464824670436 1.28760308085 0)
(-0.404473697425 1.1025793003 0)
(-0.340255500204 0.912863843372 0)
(-0.275692934659 0.719591040795 0)
(-0.2000476349 0.535269019635 0)
(-0.155021476215 0.359058329875 0)
(0.0135552911204 0.335091419239 0)
(-0.202842264727 0.366974633489 0)
(-0.504923099474 -0.473774490548 0)
(-0.406016523657 -0.664424598868 0)
(-0.833653779123 -0.870095322523 6.18770635915e-28)
(-1.04884516604 -0.680489024043 -3.18634999333e-28)
(-1.16978623556 -0.529208510182 -2.18914906739e-28)
(-1.28620124832 -0.415417836769 1.71828944538e-28)
(-1.41368398517 -0.373876488369 -1.34690444756e-28)
(-1.55333830448 -0.363811264377 1.17206807437e-28)
(-1.69719190768 -0.36535395629 0)
(-1.83630396013 -0.373252393593 0)
(-1.964513814 -0.38724881232 0)
(-2.07863057096 -0.407963735097 0)
(-2.17775293966 -0.436051277529 0)
(-2.26228101272 -0.472097979733 0)
(-2.33318055785 -0.516529629112 0)
(-2.39162060896 -0.569546586932 0)
(-2.438835759 -0.63112403766 0)
(-2.47606882652 -0.701069884094 0)
(-2.50452311911 -0.779075711562 0)
(-2.52531646291 -0.86476096583 0)
(-2.53944709538 -0.957690995562 0)
(-2.54777911987 -1.05740039663 0)
(-2.55104438533 -1.16340700599 0)
(-2.5498540507 -1.27523880868 0)
(-2.54471373343 -1.3924513829 0)
(-2.53603851711 -1.51465268698 0)
(-2.52416942689 -1.641512642 0)
(-2.50938279421 -1.77278274651 0)
(-2.49191837654 -1.90828060581 0)
(-2.47192762592 -2.04796031822 1.33289911818e-28)
(-2.44953586702 -2.19170898926 -1.33775648045e-28)
(-2.42404759773 -2.33999416587 0)
(-2.39479861064 -2.48417096783 0)
(-2.36518195416 -2.59811796766 0)
(-2.33742692767 -2.68056789319 0)
(-2.31141860346 -2.73476323072 0)
(-2.28629965676 -2.76367789065 0)
(-2.26147151239 -2.77053893608 0)
(-2.23661728312 -2.75871963691 0)
(-2.21153280037 -2.73151323276 0)
(-2.18603786858 -2.69197854765 0)
(-2.15995922765 -2.64285944268 0)
(-2.13313914889 -2.58655117223 0)
(-2.10544060337 -2.52508048345 0)
(-2.07674653119 -2.46010109121 0)
(-2.04695618136 -2.39289532056 0)
(-2.01598305408 -2.32439438911 0)
(-1.98375296963 -2.25520466392 0)
(-1.95020213104 -2.18564872351 0)
(-1.91527424994 -2.1158060982 0)
(-1.87891830419 -2.04556331812 0)
(-1.84108711386 -1.97465964748 0)
(-1.80173736239 -1.90273893589 0)
(-1.76083036993 -1.82939478 0)
(-1.71833358041 -1.75421856823 0)
(-1.6742223254 -1.67683796801 0)
(-1.62848194661 -1.5969544515 0)
(-1.58110996034 -1.51436843316 0)
(-1.53211788107 -1.42900014528 0)
(-1.48153205851 -1.34089603562 0)
(-1.42939264223 -1.25022841357 0)
(-1.37575016886 -1.15727944511 0)
(-1.32065896008 -1.06241803704 0)
(-1.26416758306 -0.966063552031 0)
(-1.20630568112 -0.868647321072 0)
(-1.14706858958 -0.770569658167 0)
(-1.08639777723 -0.672167430388 0)
(-1.02416232467 -0.573695593145 0)
(-0.960128825259 -0.475334236218 0)
(-0.893950150901 -0.377237851836 0)
(-0.825085037496 -0.279619829847 0)
(-0.75288256681 -0.182961644764 0)
(-0.676142377814 -0.088162458808 0)
(-0.59416646722 0.00269499703326 0)
(-0.503406642823 0.0870623371739 0)
(-0.408155127193 0.158393094837 0)
(-0.28874497529 0.219396467948 0)
(-0.214929006676 0.25001114657 0)
(0.0824935491295 0.395229117296 0)
(-0.299775534142 0.447552066525 0)
(-0.865472332067 -1.00138364782 0)
(-1.19478353662 -1.18402698494 0)
(-1.26672492587 -0.766673212447 0)
(-1.13176401122 -0.66737444837 0)
(-1.13463022832 -0.649917374224 0)
(-1.24109990008 -0.634759831832 0)
(-1.38595240448 -0.612912013815 0)
(-1.54284223427 -0.57668329778 0)
(-1.69672892095 -0.525338044271 0)
(-1.83791455117 -0.463293123258 0)
(-1.96220019227 -0.395569433458 0)
(-2.06902919068 -0.325723132099 0)
(-2.15958033793 -0.255859567823 0)
(-2.23569599065 -0.187116727888 0)
(-2.29935839071 -0.119976946206 0)
(-2.35243750145 -0.0544446131714 0)
(-2.39659432129 0.00980948113421 0)
(-2.43326393367 0.0733166981941 0)
(-2.46366690438 0.13670179925 0)
(-2.48882260241 0.200609105109 0)
(-2.50956181793 0.265656817372 0)
(-2.52654229027 0.332413659544 0)
(-2.5402691805 0.401385371789 0)
(-2.55111887181 0.473010643937 0)
(-2.55936272987 0.547660074576 0)
(-2.56519031461 0.625643204596 0)
(-2.56872408075 0.707214386476 0)
(-2.57004838591 0.79259008823 0)
(-2.56917604014 0.88194594603 0)
(-2.56621516726 0.975455995903 0)
(-2.56095784032 1.07324842857 0)
(-2.55446780122 1.17558922688 0)
(-2.54435531394 1.26658545503 0)
(-2.52867611906 1.33738622237 0)
(-2.50801898069 1.3888389466 0)
(-2.48323900849 1.4220053919 0)
(-2.45468489873 1.43879016178 0)
(-2.42262279707 1.44158408099 0)
(-2.38744878808 1.4328877265 0)
(-2.34964305845 1.41511005414 0)
(-2.30967940652 1.39046592177 0)
(-2.26798039432 1.36090879697 0)
(-2.22491048589 1.32808326711 0)
(-2.18078270205 1.29330027597 0)
(-2.13586253399 1.25753978857 0)
(-2.09036854333 1.22147329563 -1.48037473915e-28)
(-2.04447119629 1.1855004451 1.49903982387e-28)
(-1.99829293887 1.14978864311 0)
(-1.95190921476 1.11431550144 0)
(-1.90535136931 1.0789085404 0)
(-1.85861096579 1.0432867211 0)
(-1.81164593931 1.00709911778 0)
(-1.76438754049 0.969965547674 0)
(-1.71674774858 0.931513393808 0)
(-1.6686262594 0.891415043223 0)
(-1.61991712822 0.849419293953 0)
(-1.57051488429 0.805381001847 0)
(-1.52032032376 0.759281685088 -3.85645571833e-28)
(-1.46924585802 0.711245472923 3.93194225684e-28)
(-1.41722005839 0.661542780502 0)
(-1.36419107031 0.610587020791 0)
(-1.31012794959 0.558917717953 0)
(-1.25501970928 0.507178319147 0)
(-1.19887085885 0.456084884395 0)
(-1.1416936174 0.406397912858 0)
(-1.08349625028 0.35889494875 0)
(-1.02426712708 0.314358886295 0)
(-0.963959042436 0.273578523291 0)
(-0.902461834087 0.237373809085 0)
(-0.839603448127 0.206627906615 0)
(-0.77506232056 0.18236047635 0)
(-0.708522098275 0.165723938099 0)
(-0.639074696782 0.158152805415 0)
(-0.566746430715 0.160798648492 0)
(-0.487490746268 0.175516853537 0)
(-0.408338400859 0.199970612438 0)
(-0.299639614485 0.241087058638 0)
(-0.259885859363 0.272692506357 0)
(0.113424170883 0.445306103769 0)
(-0.435823726939 0.457305583138 0)
(-0.0205649811726 -2.43955659403 0)
(-1.28784683343 -0.680901525196 0)
(-1.01419957415 -0.438095295897 0)
(-0.833870389256 -0.637136853495 0)
(-0.989229946064 -0.746834773307 0)
(-1.21102099702 -0.773748716049 0)
(-1.40713401354 -0.757643515853 0)
(-1.57535685018 -0.71104085673 0)
(-1.71725368884 -0.644947494492 0)
(-1.83287318558 -0.570609810153 0)
(-1.92486812375 -0.496175542883 0)
(-1.99737042858 -0.426348405816 0)
(-2.05434518242 -0.363456772702 0)
(-2.09908661323 -0.308436530176 0)
(-2.13423441681 -0.261432979799 0)
(-2.16186425563 -0.222150311218 0)
(-2.18357668358 -0.190062018039 0)
(-2.20059090533 -0.164548878665 0)
(-2.21383146933 -0.144984885747 0)
(-2.22399613175 -0.130791583171 0)
(-2.23160384102 -0.121463518515 0)
(-2.23702978877 -0.116581146611 0)
(-2.24053422043 -0.115811231837 0)
(-2.24228761519 -0.118906785334 0)
(-2.24239409088 -0.125701765724 0)
(-2.24090795334 -0.136106368195 0)
(-2.23785471432 -0.150104223826 0)
(-2.23322455155 -0.167733239745 0)
(-2.22701692884 -0.189124461462 0)
(-2.21913156815 -0.214368221949 0)
(-2.20960899462 -0.243897542884 1.3867401679e-28)
(-2.19815727486 -0.276227568366 -1.39736960281e-28)
(-2.18615230093 -0.299862617404 0)
(-2.17415593548 -0.313812879467 0)
(-2.16209659411 -0.318273740155 0)
(-2.14987532843 -0.314399265005 0)
(-2.1372075754 -0.30370073392 0)
(-2.12371254209 -0.287724290112 0)
(-2.10906428264 -0.26796980712 0)
(-2.09303343352 -0.245838949486 0)
(-2.07545986294 -0.222566385543 0)
(-2.05622355427 -0.19916047893 0)
(-2.03523736462 -0.176376790631 0)
(-2.01245198846 -0.154720353061 0)
(-1.98786001609 -0.134469314429 0)
(-1.96149217213 -0.115705333341 0)
(-1.93340708083 -0.0983505889075 0)
(-1.90367779811 -0.0822031888232 0)
(-1.8723790308 -0.0669754616818 0)
(-1.83957678097 -0.0523268426797 0)
(-1.80532146934 -0.0378974649465 0)
(-1.76964389657 -0.0233349818058 0)
(-1.73255359098 -0.00832269443382 0)
(-1.69403863044 0.00739885935484 0)
(-1.65406680252 0.0240090552395 0)
(-1.61258783188 0.0415927339999 0)
(-1.56953671144 0.0601269259317 0)
(-1.52483796899 0.0794795640053 0)
(-1.47841053294 0.0994124407348 0)
(-1.43017301021 0.11959896228 0)
(-1.38004870411 0.139646790303 0)
(-1.32797033129 0.159133758339 0)
(-1.27388339413 0.177643761482 0)
(-1.21774839818 0.194808509235 0)
(-1.15954033615 0.210340206348 0)
(-1.0992466167 0.224061424737 0)
(-1.03686006998 0.235919376444 0)
(-0.972375745626 0.245994450436 0)
(-0.905772233963 0.254500921952 0)
(-0.837036833846 0.26178312093 0)
(-0.766079904526 0.268347691563 0)
(-0.692995293262 0.274849461782 0)
(-0.617338435355 0.282328695432 0)
(-0.540317704386 0.291788457599 0)
(-0.458082650001 0.305768203652 0)
(-0.382332013522 0.323156090898 0)
(-0.27423495202 0.354690175385 0)
(-0.268730156055 0.371913781763 0)
(0.179652853058 0.543230330417 0)
(-0.580503514514 0.486020993273 0)
(3.30815672586 -3.78039826888 0)
(-0.971729784911 -0.57758717041 0)
(-0.571373036668 -0.688219388455 0)
(-0.623551976973 -0.988087753802 0)
(-1.00591131447 -1.05645558852 0)
(-1.30127987173 -1.02882870685 0)
(-1.49368243587 -0.960213725628 0)
(-1.63143071309 -0.86558340757 0)
(-1.7329405101 -0.759551707616 0)
(-1.80592139521 -0.654094099611 0)
(-1.85779335093 -0.555736710137 0)
(-1.89504148157 -0.467067695229 0)
(-1.92229740591 -0.388608646824 0)
(-1.94266532712 -0.319883868672 0)
(-1.95825246887 -0.259958674359 0)
(-1.97050433271 -0.207721002841 0)
(-1.9804012561 -0.162031104429 0)
(-1.98859555374 -0.121795228406 0)
(-1.99551443298 -0.0860030988018 0)
(-2.00143205385 -0.0537437902356 0)
(-2.00651655192 -0.0242124303699 0)
(-2.01086055447 0.00329288486616 0)
(-2.01450322472 0.0293767609759 0)
(-2.01744751285 0.0545572599476 0)
(-2.01967591441 0.0792764781344 0)
(-2.02115918964 0.103913769425 0)
(-2.02187278806 0.128798785644 0)
(-2.02177597933 0.15422364335 0)
(-2.02087954008 0.18045986738 0)
(-2.01905794636 0.207769536681 0)
(-2.01654299674 0.236436417448 0)
(-2.01257308328 0.264600916 0)
(-2.00682155304 0.287907288007 0)
(-1.99934661718 0.306213179693 0)
(-1.99028321108 0.319768719349 0)
(-1.97975939372 0.329006517281 0)
(-1.96786888002 0.33449768172 0)
(-1.95466737047 0.336941122527 0)
(-1.94020970768 0.337074643712 0)
(-1.9245678665 0.335573088267 0)
(-1.90781605886 0.332989349178 0)
(-1.89000917087 0.329741064903 0)
(-1.87117434399 0.326123464456 0)
(-1.85131657929 0.322330506917 0)
(-1.83042875812 0.318478283951 0)
(-1.80849814672 0.314626100398 0)
(-1.78550684013 0.310796261329 0)
(-1.76142853169 0.306988701178 0)
(-1.73622490045 0.303193382142 0)
(-1.70984404021 0.299397829295 0)
(-1.68222106038 0.295594623729 0)
(-1.65328014789 0.291785642043 0)
(-1.62293698799 0.287987544083 0)
(-1.59110128926 0.284233976253 0)
(-1.55767944754 0.28057903647 0)
(-1.52257762919 0.277096844923 0)
(-1.48570522875 0.273882018796 0)
(-1.44697820583 0.271045421872 0)
(-1.40632174782 0.268710408626 0)
(-1.3636713705 0.267004386946 0)
(-1.31897221817 0.266052220186 0)
(-1.27217605365 0.265967666962 0)
(-1.22323640767 0.266850409857 0)
(-1.17210204931 0.268784973966 0)
(-1.11870963214 0.271847950025 0)
(-1.06297682388 0.276117461692 0)
(-1.00479516589 0.281686103405 0)
(-0.944032139575 0.288670055354 0)
(-0.880520171735 0.297220345363 0)
(-0.814107018101 0.307505994781 0)
(-0.744567964197 0.319732950955 0)
(-0.671977584829 0.334071126957 0)
(-0.595814578397 0.350857057101 0)
(-0.517910896114 0.370057552237 0)
(-0.433779659605 0.393142015041 0)
(-0.35976027477 0.417405941901 0)
(-0.246342261153 0.454094277334 0)
(-0.272690093967 0.468974117663 0)
(0.269091310563 0.651130347684 0)
(-0.744394179212 0.527157660386 0)
(5.48835743695 -3.72346528025 0)
(-1.63766487498 -0.524558023777 0)
(-0.562285699326 -1.10325795287 0)
(-0.735259418546 -1.35350971256 0)
(-1.18693122142 -1.31160452784 0)
(-1.43051029642 -1.20575459279 0)
(-1.55289300984 -1.07847075111 0)
(-1.63007231022 -0.941163335664 0)
(-1.68031246338 -0.807294408486 0)
(-1.71087308344 -0.68519019498 0)
(-1.72904199464 -0.577505326448 -3.78362697249e-28)
(-1.7402833932 -0.484091491286 3.70739166205e-28)
(-1.74779314535 -0.403781115775 0)
(-1.75332983 -0.33507671156 0)
(-1.75788646093 -0.276428345645 0)
(-1.76201482156 -0.226369985582 0)
(-1.76598543051 -0.183577372796 0)
(-1.76989037456 -0.146883343804 0)
(-1.773715718 -0.115273736034 0)
(-1.77738950716 -0.0878806783762 0)
(-1.78081123406 -0.0639734241843 0)
(-1.78386954096 -0.0429496258736 0)
(-1.78645408888 -0.0243228549488 0)
(-1.78846417163 -0.00771034107676 0)
(-1.78981580275 0.00718331113456 0)
(-1.79044488055 0.0205775641217 0)
(-1.79031262918 0.0326370778459 0)
(-1.78939261577 0.0434666692861 0)
(-1.78770206443 0.053161931965 0)
(-1.78520913015 0.0617410126541 0)
(-1.78209843893 0.0693189857468 0)
(-1.7782283368 0.0773378495626 -2.37086614269e-28)
(-1.774220266 0.0871876646871 2.35486646911e-28)
(-1.7700637095 0.098803162273 0)
(-1.76564741081 0.111861180779 0)
(-1.76082725506 0.125870879751 0)
(-1.75544507669 0.140283746048 0)
(-1.74933614242 0.154599390754 0)
(-1.74234659749 0.168420541839 0)
(-1.73434954938 0.181459253209 0)
(-1.72524747461 0.193525284443 0)
(-1.71496598472 0.204514883517 0)
(-1.70344880659 0.214401035945 0)
(-1.69065759341 0.223222085334 0)
(-1.67657263287 0.231066553009 0)
(-1.66118985222 0.238057362687 0)
(-1.64451261181 0.244336434015 0)
(-1.62654108187 0.250052964752 0)
(-1.60726299377 0.255353516491 0)
(-1.58664828419 0.260375713658 0)
(-1.56464743936 0.265242204986 0)
(-1.54119215153 0.270056981224 0)
(-1.51619689216 0.274900685121 0)
(-1.4895612044 0.279828216062 0)
(-1.46117306921 0.28486579717 0)
(-1.43091398897 0.290011866445 0)
(-1.39866568485 0.295238922447 0)
(-1.36431794296 0.300500643303 0)
(-1.3277763733 0.305740459599 0)
(-1.28896891376 0.310904869682 0)
(-1.24784952706 0.315956541919 0)
(-1.20439806253 0.320889611354 0)
(-1.1586150124 0.325742176807 0)
(-1.11051134951 0.33060853327 0)
(-1.06009303602 0.335646592337 0)
(-1.0073435169 0.3410875896 0)
(-0.952202804343 0.34723134334 0)
(-0.894560658056 0.354446296964 0)
(-0.834233249789 0.363162768616 0)
(-0.771025966836 0.373832612517 0)
(-0.704622797536 0.386924504798 0)
(-0.635063446541 0.402814491333 0)
(-0.561623251564 0.421938995179 0)
(-0.48656738926 0.444138220832 0)
(-0.40418508223 0.470719796566 0)
(-0.335369905026 0.498140552214 0)
(-0.217348517177 0.538741508624 0)
(-0.281451301796 0.55202033388 0)
(0.373402218392 0.752596937697 0)
(-0.930094966944 0.566537928605 0)
(7.69465965034 -3.77926277235 0)
(-2.68650520208 -0.776218644729 0)
(-0.607352874312 -1.61576473824 0)
(-0.877497131811 -1.68491575246 0)
(-1.31240032967 -1.51262729055 0)
(-1.46377130684 -1.33179317811 0)
(-1.51652361058 -1.15401229993 0)
(-1.54703827888 -0.984787297472 0)
(-1.56348322722 -0.833046930085 0)
(-1.56969789474 -0.701559687742 0)
(-1.57108343024 -0.589040978071 0)
(-1.57114369842 -0.493157277718 0)
(-1.57143216637 -0.411556405917 0)
(-1.57253070816 -0.342060991414 0)
(-1.57460325419 -0.282722639847 0)
(-1.57759866274 -0.231845489535 0)
(-1.58134158638 -0.187978887094 0)
(-1.58559421854 -0.149890352169 0)
(-1.59010019824 -0.1165378734 0)
(-1.59461211304 -0.0870461335623 0)
(-1.59890684895 -0.0606884607959 0)
(-1.60279354397 -0.0368692174721 0)
(-1.60611728698 -0.0151068735444 0)
(-1.60876108315 0.00498480312756 0)
(-1.61064487086 0.0237155272447 0)
(-1.61172656584 0.0413341619856 0)
(-1.61199344017 0.0580496304109 0)
(-1.61146544873 0.0740272102502 0)
(-1.61019485973 0.0894446746078 0)
(-1.6082032842 0.104384506426 0)
(-1.60572417005 0.119128258545 0)
(-1.60250197865 0.133050996923 0)
(-1.59892174758 0.145987543779 0)
(-1.59503861548 0.157984267914 0)
(-1.59088664881 0.169135731392 0)
(-1.58648803236 0.179561716779 0)
(-1.58184828931 0.189378155832 0)
(-1.57694061762 0.198681485375 0)
(-1.57169977589 0.207539120157 0)
(-1.56602881956 0.215981995987 0)
(-1.55981083822 0.224005213274 0)
(-1.55291967809 0.231580347594 0)
(-1.54522999365 0.238675120874 0)
(-1.53662655083 0.245271906557 0)
(-1.52701115012 0.251379659789 -3.5565720197e-28)
(-1.51630398782 0.257037650723 3.61662704234e-28)
(-1.50443921078 0.262313670554 0)
(-1.49135684038 0.267298922204 0)
(-1.47699501579 0.272102324319 0)
(-1.46128461844 0.276844093472 0)
(-1.44414648018 0.281649356554 0)
(-1.4254897671 0.286640551024 0)
(-1.40521091995 0.291929665006 0)
(-1.38319329641 0.297609710448 0)
(-1.35930864668 0.303747310533 0)
(-1.33342103201 0.310376260132 0)
(-1.3053933562 0.317494142178 0)
(-1.2750956819 0.325062042388 0)
(-1.24241431845 0.333009129282 0)
(-1.20726023679 0.341241868412 0)
(-1.16957559543 0.349659007229 0)
(-1.12933662948 0.358169789812 0)
(-1.08655179927 0.366717602594 0)
(-1.04125333463 0.375301305085 0)
(-0.993483253699 0.383996247109 0)
(-0.943271854628 0.392978071144 0)
(-0.890612690803 0.402514617704 0)
(-0.835448646273 0.412971040178 0)
(-0.777638626043 0.424799255614 0)
(-0.717034166809 0.4384706719 0)
(-0.653338300083 0.45445771661 0)
(-0.586698672099 0.473094818609 0)
(-0.516320645895 0.49471129165 0)
(-0.445102099918 0.518926063513 0)
(-0.366016905681 0.546946284875 0)
(-0.305005830914 0.574655255014 0)
(-0.18359175604 0.615933644583 0)
(-0.294894999076 0.624107937527 0)
(0.493225259457 0.844772038603 0)
(-1.13595949037 0.599652348244 0)
(9.99867517211 -3.76147443982 0)
(-3.93442607296 -1.18354410976 0)
(-0.539332471466 -2.13980494044 0)
(-0.958719026492 -1.95130414698 0)
(-1.34267400362 -1.65274918929 0)
(-1.40798146496 -1.40729492044 0)
(-1.41566284085 -1.19008061811 0)
(-1.42183480068 -0.999698703683 0)
(-1.42276287279 -0.838341238027 0)
(-1.41960919542 -0.703076288083 0)
(-1.41607999952 -0.58953356 0)
(-1.41407320216 -0.493927257685 0)
(-1.41403772307 -0.413157508714 0)
(-1.4158779261 -0.344628089367 0)
(-1.41931384243 -0.286164024638 0)
(-1.42398128665 -0.235963758516 0)
(-1.42948258927 -0.192543554905 0)
(-1.43542789048 -0.154682261807 0)
(-1.44146329716 -0.121374932922 0)
(-1.4472859312 -0.0917985343332 0)
(-1.45264944174 -0.065284748522 0)
(-1.45736393195 -0.0412972806622 0)
(-1.46129233726 -0.0194100439493 0)
(-1.46434575987 0.000713059296378 0)
(-1.4664758758 0.0193372031926 0)
(-1.46767180894 0.0366720507242 0)
(-1.46794494233 0.0528860430752 0)
(-1.46734936146 0.0681108244894 0)
(-1.46591235151 0.0824691762948 0)
(-1.46379089472 0.0960113140014 0)
(-1.46108766117 0.108981115029 0)
(-1.4578143113 0.121693343024 0)
(-1.45430148616 0.134237156554 -3.19768996382e-28)
(-1.45059854776 0.146590117285 3.17617165734e-28)
(-1.44674721843 0.158697171404 0)
(-1.44278708466 0.170497830276 0)
(-1.43875069788 0.181937737031 0)
(-1.43464438066 0.192973916802 0)
(-1.43043368271 0.2035747317 0)
(-1.42604330797 0.213715574523 0)
(-1.42136739203 0.223374515821 0)
(-1.4162829141 0.232532674971 0)
(-1.41066131347 0.241179637305 0)
(-1.40437746886 0.249320732492 0)
(-1.39731490274 0.256982447199 0)
(-1.38936694924 0.264214398927 0)
(-1.38043383815 0.271088384833 0)
(-1.37041806228 0.277696020334 0)
(-1.35922010887 0.284145766106 0)
(-1.3467359253 0.290559235092 0)
(-1.33285524541 0.297065901259 0)
(-1.31745993483 0.303795844923 0)
(-1.3004220156 0.310870738034 0)
(-1.28160263624 0.318394135292 0)
(-1.26085329585 0.326442275966 0)
(-1.2380202951 0.335056755837 0)
(-1.21295215611 0.344239973347 0)
(-1.1855089233 0.35395470498 0)
(-1.15557189848 0.364127933728 0)
(-1.12305246408 0.374660546287 0)
(-1.08789766171 0.385442661165 0)
(-1.05009322976 0.396373524457 0)
(-1.00965926656 0.407388741258 0)
(-0.966641619705 0.418485057454 0)
(-0.921096133765 0.429741937936 0)
(-0.873063228069 0.441369218423 0)
(-0.822546374792 0.453670382537 0)
(-0.769499586444 0.4670512652 0)
(-0.713789424109 0.481996349679 0)
(-0.655304763046 0.498964946351 0)
(-0.593769469839 0.51835593098 0)
(-0.529506997301 0.540333782149 0)
(-0.461788238298 0.564873215308 0)
(-0.394399687788 0.591132814451 0)
(-0.319066115675 0.61997050809 0)
(-0.267360470452 0.64658563385 0)
(-0.142992578736 0.686235504906 0)
(-0.311836533666 0.686107155966 0)
(0.63244353488 0.92794343561 0)
(-1.36159471601 0.625309524 0)
(12.4852402611 -3.77271483721 0)
(-5.38487343544 -1.73321312655 0)
(-0.336241147041 -2.6205121159 0)
(-0.99217844128 -2.13170715477 0)
(-1.30212047536 -1.7350923086 0)
(-1.30169091761 -1.44456861347 0)
(-1.2892055803 -1.20261504626 0)
(-1.28786311053 -1.00166320771 0)
(-1.28511914129 -0.837066872407 0)
(-1.281288504 -0.701587434897 0)
(-1.27904458136 -0.589057360756 0)
(-1.27929811111 -0.494921101934 0)
(-1.28194153157 -0.415649448686 0)
(-1.28657994393 -0.348392697781 0)
(-1.29273735933 -0.290847941825 0)
(-1.2999124679 -0.241169022749 0)
(-1.30762266918 -0.197879205685 0)
(-1.31543921032 -0.159793615227 0)
(-1.32300643679 -0.12595952468 0)
(-1.33004717649 -0.0956114499048 0)
(-1.33635946201 -0.0681373369538 0)
(-1.34180834628 -0.0430502581031 0)
(-1.34631496823 -0.0199645166367 0)
(-1.34984517175 0.00142542854236 0)
(-1.35239671585 0.0213616647618 0)
(-1.35399191234 0.0400359907651 0)
(-1.35466009551 0.0575992360098 0)
(-1.35445680946 0.0741670969067 0)
(-1.35340264692 0.0898243357773 0)
(-1.35165283181 0.104631547755 0)
(-1.34910485839 0.118658932549 0)
(-1.34599569945 0.131873535337 0)
(-1.34238888635 0.14433597787 0)
(-1.33838101047 0.156125030057 0)
(-1.33409297424 0.167336927179 0)
(-1.32965389199 0.178074977742 0)
(-1.32518126021 0.188431579428 0)
(-1.32075532481 0.198475156753 0)
(-1.31640152923 0.208246665437 0)
(-1.31208881996 0.217762419622 0)
(-1.30774058367 0.227021314 0)
(-1.30324952365 0.236013963679 0)
(-1.29849083293 0.24473258009 0)
(-1.29333127768 0.253179334451 0)
(-1.28763473948 0.261372148233 0)
(-1.28126437833 0.269347594122 0)
(-1.27408282527 0.277161975638 0)
(-1.26595154496 0.284891596721 0)
(-1.25673081328 0.29263242787 0)
(-1.24627982582 0.300498192079 0)
(-1.23445605945 0.308615487234 0)
(-1.22111300388 0.317115362109 0)
(-1.20609725754 0.326121876826 0)
(-1.18924681041 0.335739284695 0)
(-1.17039260229 0.346039562349 0)
(-1.14936405264 0.357052551095 0)
(-1.12599841102 0.368759644096 0)
(-1.10015170655 0.381093346197 0)
(-1.07171020272 0.393942257112 0)
(-1.04059948469 0.407164297745 0)
(-1.0067894631 0.420607145784 0)
(-0.970295225901 0.434132739337 0)
(-0.931165723867 0.447653280074 0)
(-0.889473202776 0.461170036689 0)
(-0.845291891359 0.474774310975 0)
(-0.798664469683 0.488744700424 0)
(-0.749570314577 0.503455225916 0)
(-0.697921335416 0.519417011746 0)
(-0.643554800553 0.537194646319 0)
(-0.586398028631 0.55723227636 0)
(-0.526202165791 0.579886004971 0)
(-0.463509530145 0.604941667576 0)
(-0.397776055837 0.631882570186 0)
(-0.33394104787 0.659318446766 0)
(-0.262536669511 0.68767240092 0)
(-0.221181380173 0.711722401387 0)
(-0.0943833149121 0.747066059324 0)
(-0.33233838353 0.73807810225 0)
(0.798273731055 1.00055827802 0)
(-1.607146265 0.64210110758 0)
(15.1424767509 -3.80066008795 0)
(-7.02714025738 -2.3678502902 0)
(0.0323415932741 -3.00874488961 0)
(-0.994610351674 -2.22944225952 0)
(-1.21550352349 -1.77875826293 0)
(-1.17725220844 -1.46142588257 0)
(-1.16366138982 -1.20562557797 0)
(-1.16406819999 -1.00023217587 0)
(-1.16319100981 -0.835173565049 0)
(-1.16222776407 -0.700697870167 0)
(-1.16340650947 -0.589798038723 0)
(-1.16714587196 -0.497473873324 0)
(-1.17310929808 -0.419870192491 0)
(-1.18077519662 -0.353935907628 0)
(-1.18957257136 -0.297278517565 0)
(-1.19894150248 -0.248040857868 0)
(-1.20838438905 -0.204782518783 0)
(-1.21749706665 -0.166381041813 0)
(-1.22597824376 -0.131956588167 0)
(-1.23362488952 -0.100816993668 0)
(-1.24031974262 -0.0724160326016 0)
(-1.24601532502 -0.0463209401946 0)
(-1.25071601961 -0.0221862025034 0)
(-1.25446084083 0.000266513432403 0)
(-1.25730535799 0.0212631082975 0)
(-1.2593113746 0.0409855949661 0)
(-1.26052661852 0.0595782679648 0)
(-1.26100400531 0.0771460618663 0)
(-1.26073742534 0.0937620890383 0)
(-1.25984363469 0.109444632435 0)
(-1.25817212221 0.124219761004 0)
(-1.25578468693 0.138088877913 0)
(-1.25267948337 0.151044073553 0)
(-1.24892465965 0.163138572594 0)
(-1.24464977115 0.174453656311 0)
(-1.24001531383 0.185096596302 0)
(-1.23518594665 0.195184449619 0)
(-1.23030204578 0.204829260178 0)
(-1.22545828587 0.214128673052 0)
(-1.22069609382 0.223162701063 0)