/*--------------------------------*- C++ -*----------------------------------*\
| =========                 |                                                 |
| \\      /  F ield         | OpenFOAM: The Open Source CFD Toolbox           |
|  \\    /   O peration     | Version:  v1806                                 |
|   \\  /    A nd           | Web:      www.OpenFOAM.com                      |
|    \\/     M anipulation  |                                                 |
\*---------------------------------------------------------------------------*/
FoamFile
{
    version     2.0;
    format      ascii;
    class       volVectorField;
    location    "100";
    object      Ua;
}
// * * * * * * * * * * * * * * * * * * * * * * * * * * * * * * * * * * * * * //

dimensions      [0 1 -1 0 0 0 0];


internalField   nonuniform List<vector> 
6400
(
(-0.168117093422 -0.0342595662127 0)
(-0.144886667936 -0.0376316034047 0)
(-0.168271359958 0.0244866710823 0)
(-0.179505504818 -0.0015683129969 0)
(-0.228160964625 -0.122355887733 0)
(-0.268530798725 -0.27352804565 0)
(-0.324373261366 -0.431611608241 0)
(-0.382614806143 -0.598808445311 0)
(-0.439935136072 -0.790366573291 0)
(-0.501020922276 -1.02332275718 0)
(-0.55803376911 -1.26017462306 0)
(-0.612809666484 -1.50718604641 0)
(-0.66596398347 -1.76846366325 0)
(-0.716873784987 -2.0467289728 0)
(-0.763509470894 -2.34222368715 0)
(-0.803546518838 -2.65231407869 0)
(-0.835837087978 -2.97246516192 0)
(-0.861035533829 -3.29787668358 0)
(-0.881078256884 -3.6248858706 0)
(-0.89818979291 -3.95148901013 0)
(-0.914126257744 -4.2770507383 0)
(-0.929891671623 -4.60164678777 0)
(-0.945816861935 -4.92543982118 0)
(-0.961802114587 -5.24827376657 0)
(-0.977569588858 -5.56952095481 0)
(-0.992844788992 -5.88811584826 0)
(-1.00744629759 -6.20270792547 0)
(-1.02130088971 -6.51185571958 0)
(-1.03441442624 -6.81422803295 0)
(-1.04682803918 -7.10876310677 0)
(-1.05857787892 -7.39477636692 0)
(-1.06967601456 -7.6719920904 0)
(-1.08009909427 -7.94054283289 0)
(-1.0898369123 -8.20098421451 0)
(-1.09885778952 -8.45439067436 0)
(-1.10720958749 -8.7023976092 0)
(-1.11397169723 -8.94619967008 0)
(-1.11710267579 -9.18344812869 0)
(-1.11438138754 -9.40907560479 0)
(-1.10570449114 -9.60040569855 0)
(-1.09168720802 -9.73943694616 0)
(-1.07230144145 -9.81703199967 0)
(-1.04708704505 -9.82323192773 0)
(-1.01541798861 -9.74712397767 0)
(-0.976817544454 -9.57731216627 0)
(-0.931259922241 -9.30294523013 0)
(-0.879508859107 -8.9153449887 0)
(-0.823482092676 -8.41027526834 0)
(-0.766609928054 -7.79066744472 0)
(-0.713917546203 -7.06915482936 0)
(-0.671826551879 -6.26955551191 0)
(-0.646998246287 -5.42596689384 0)
(-0.645890996386 -4.57971290042 0)
(-0.671372983534 -3.77251568162 0)
(-0.727693637393 -3.0419447146 0)
(-0.804474113136 -2.40552143938 0)
(-0.91898742505 -1.86972257841 0)
(-0.986648924138 -1.35233488648 0)
(-1.10199170482 -0.713967270548 0)
(-0.423447203279 0.0813980552766 0)
(0.0789676533382 -0.378372158614 0)
(0.232664923245 -1.00361030853 0)
(0.339336092486 -1.55569992022 0)
(0.438868186549 -2.0411538887 0)
(0.542089593309 -2.41064751829 0)
(0.645770346741 -2.6274600308 0)
(0.740020923695 -2.67000366267 0)
(0.815930911324 -2.54235107383 0)
(0.865525715529 -2.27375174784 0)
(0.889835081404 -1.99887641845 0)
(0.899266194631 -1.73810725259 0)
(0.896078753431 -1.4908227626 0)
(0.88149800775 -1.25518725726 0)
(0.855982052806 -1.03077052426 0)
(0.818407270357 -0.818200428308 0)
(0.764391827867 -0.618373814766 0)
(0.688698663961 -0.431615986977 0)
(0.596234129747 -0.247289575269 0)
(0.587427616784 0.114211932869 0)
(0.322313687168 -0.0817344161617 0)
(-0.154326709706 -0.15339719832 0)
(-0.182229838483 -0.047615179168 0)
(-0.274061403857 0.00748491572064 0)
(-0.32618194448 -0.0679472554851 0)
(-0.448840745006 -0.137813102368 0)
(-0.625483781074 -0.181167669104 0)
(-0.839002862529 -0.188419813233 0)
(-1.05227775237 -0.150527722648 0)
(-1.25721148262 -0.0777725199413 0)
(-1.44933345335 0.0250224586634 0)
(-1.62479178667 0.149092423474 0)
(-1.78217815678 0.289507656573 0)
(-1.9230052635 0.444004463953 0)
(-2.04941672391 0.611005663363 0)
(-2.16212957177 0.78953926817 0)
(-2.26055971537 0.979232330831 0)
(-2.34440088018 1.18011800416 0)
(-2.41447596502 1.39226217524 0)
(-2.47250312808 1.61538088548 0)
(-2.52049292998 1.84865468458 0)
(-2.56027356839 2.09079570327 0)
(-2.59325699403 2.3402382327 0)
(-2.62040557988 2.59533899896 0)
(-2.64231562733 2.85450631087 0)
(-2.65934562024 3.11626240595 0)
(-2.67173448138 3.37924430954 0)
(-2.67968524433 3.64218817824 0)
(-2.68340709472 3.90391008085 0)
(-2.68312597846 4.16331689166 0)
(-2.67907432067 4.41944164086 0)
(-2.67147170574 4.67151240221 0)
(-2.66050117526 4.91904062681 0)
(-2.64629418253 5.16190590749 0)
(-2.62889794665 5.40043948308 0)
(-2.60837852307 5.63539678099 0)
(-2.58513198472 5.86804732156 0)
(-2.56127118189 6.0993950418 0)
(-2.53868812428 6.32258288945 0)
(-2.51594737457 6.52424537067 0)
(-2.48963068193 6.68512733566 0)
(-2.45759889607 6.78879922869 0)
(-2.41914766055 6.82594430114 0)
(-2.37335617534 6.78594270058 0)
(-2.31867000112 6.65792562493 0)
(-2.25272375531 6.43218843505 0)
(-2.17217442668 6.10220765656 0)
(-2.07261681847 5.6671557836 0)
(-1.94881315997 5.1345696351 0)
(-1.79555456046 4.52225265646 0)
(-1.60929297768 3.85835369739 0)
(-1.39060271495 3.17865748547 0)
(-1.14639859405 2.52097335524 0)
(-0.89198631439 1.91802541525 0)
(-0.648887710961 1.3917329765 0)
(-0.445919087592 0.949972604943 0)
(-0.303789613376 0.588753666454 0)
(-0.25835681128 0.292263905563 0)
(-0.271580853192 0.120934212541 0)
(-0.26472293451 0.264380241454 0)
(-0.101263562539 0.687045877711 0)
(0.0389379511314 0.519787167887 0)
(0.315798062552 0.578455401886 0)
(0.557698445148 0.818070718785 0)
(0.77976313599 1.10058955446 0)
(0.945235912782 1.36682501369 0)
(1.05325017179 1.55793686395 0)
(1.10615747708 1.63090152853 0)
(1.11608892774 1.55967379455 0)
(1.09804272667 1.34062945176 0)
(1.07467882635 1.1246374603 0)
(1.04078934511 0.933405239703 0)
(0.994926887045 0.759639764091 0)
(0.937259834315 0.599969314694 0)
(0.870078619594 0.452230922988 0)
(0.794677850484 0.313875249979 0)
(0.710083887102 0.183094895181 0)
(0.623084634933 0.0647192627227 0)
(0.560212145311 -0.0492690166861 0)
(0.479847905179 -0.27545109775 0)
(0.0922961882672 -0.768224335952 0)
(-0.192475817297 -0.344399898972 0)
(-0.28407640051 -0.104915965303 0)
(-0.373251580374 -0.070820544231 3.36589191403e-28)
(-0.492901934764 -0.174623808991 -2.37803521393e-28)
(-0.677194230728 -0.286479144671 -1.76795230364e-28)
(-0.897308389342 -0.366726466988 1.46671538655e-28)
(-1.11979602328 -0.406653717791 -1.16532097347e-28)
(-1.32262381832 -0.416139387076 1.04786599888e-28)
(-1.495705317 -0.408173055277 0)
(-1.63804904656 -0.394568747432 0)
(-1.75262089115 -0.383106194678 0)
(-1.84324159109 -0.377636031814 0)
(-1.91364581511 -0.380564427017 0)
(-1.96697054676 -0.394407231997 0)
(-2.00528224984 -0.421532624309 0)
(-2.02987079563 -0.463152150734 0)
(-2.04205534326 -0.519166622255 0)
(-2.0435950795 -0.588748675193 0)
(-2.03655092655 -0.6709299953 0)
(-2.02298347492 -0.764899121219 0)
(-2.00472942642 -0.870034616647 0)
(-1.98329147272 -0.985802212303 0)
(-1.95981480992 -1.11161435154 0)
(-1.93512552298 -1.24673271941 0)
(-1.90980229549 -1.39022812816 0)
(-1.88425613421 -1.54100433029 0)
(-1.85879618215 -1.69785159043 0)
(-1.83367132199 -1.85952154243 0)
(-1.80908591607 -2.02479729 0)
(-1.78519736949 -2.19256991942 3.53081355028e-28)
(-1.76210600982 -2.36191606108 -3.53374740431e-28)
(-1.73983897593 -2.53217797392 0)
(-1.71834833092 -2.70303253025 0)
(-1.69744075886 -2.87453363127 0)
(-1.67665458738 -3.04715380556 0)
(-1.65438928594 -3.22171547304 0)
(-1.62897266224 -3.39322395985 0)
(-1.60132077518 -3.54416153428 0)
(-1.57391742988 -3.65667813453 0)
(-1.54757897293 -3.72286474073 0)
(-1.52183606171 -3.73235994248 0)
(-1.49596372503 -3.67416121042 0)
(-1.46963074766 -3.5379044831 0)
(-1.4428609095 -3.31544520892 0)
(-1.41600433493 -3.0032995051 0)
(-1.38967367304 -2.60569136894 0)
(-1.364385033 -2.13749468688 0)
(-1.33965063425 -1.62572113054 0)
(-1.31256698602 -1.10811631732 0)
(-1.2763817406 -0.627869874248 0)
(-1.22040926416 -0.225227376715 0)
(-1.13205866714 0.0714164635987 0)
(-1.00286038915 0.250745979424 0)
(-0.833288605803 0.318755742303 0)
(-0.644271705113 0.293483188943 0)
(-0.461290200852 0.205996091485 0)
(-0.362649898203 0.0972901789019 0)
(-0.209539769866 0.137226608402 0)
(0.0908202576661 0.569945000907 0)
(0.0874114678213 0.849704146993 0)
(0.192862263735 0.58155384873 0)
(0.357473990823 0.46953194141 0)
(0.428883376559 0.377714001753 0)
(0.460852799291 0.235083150478 0)
(0.447686902988 0.0473112029938 0)
(0.420815777787 -0.151917333207 0)
(0.399092910856 -0.315466073301 0)
(0.397280615611 -0.40102777438 0)
(0.415951629943 -0.385112102229 0)
(0.431545969855 -0.344576682309 0)
(0.436076111761 -0.31132771713 0)
(0.426948647882 -0.283849879243 0)
(0.404478882061 -0.260928054511 0)
(0.370793069018 -0.241444304335 0)
(0.326694299719 -0.225334080291 0)
(0.268063045199 -0.211212693368 0)
(0.204950865937 -0.187411897928 0)
(0.205034753514 -0.149466962352 0)
(0.237166570853 -0.253340659182 0)
(-0.566069755657 -1.01554328991 0)
(0.737793063219 -0.952132240397 0)
(-0.19634335854 -0.172030496283 0)
(-0.46992464898 -0.175814336398 0)
(-0.661161252475 -0.356501822142 0)
(-0.896315194588 -0.49448902733 0)
(-1.137302942 -0.56300100159 0)
(-1.3544209837 -0.574693770685 0)
(-1.53503406461 -0.545334502559 0)
(-1.67643712706 -0.490435688862 0)
(-1.78323118936 -0.422178892072 0)
(-1.86279285626 -0.348720497058 0)
(-1.92150602641 -0.274863722605 0)
(-1.96389493595 -0.203284004511 0)
(-1.99328555586 -0.13551245221 0)
(-2.01233163657 -0.0720934435821 0)
(-2.02315110764 -0.0124276679399 0)
(-2.02744848148 0.044984353547 0)
(-2.02670456198 0.101983279051 0)
(-2.02227154885 0.160295273558 0)
(-2.01535747411 0.221316880172 0)
(-2.00698232603 0.286071571331 0)
(-1.99794539487 0.355252258614 0)
(-1.98881342584 0.429296152898 0)
(-1.97993176565 0.50845700458 0)
(-1.97145886837 0.592854416182 0)
(-1.96341516398 0.68249689864 0)
(-1.95573627027 0.777284735644 0)
(-1.94831813258 0.877010737513 0)
(-1.94104718996 0.98136866151 0)
(-1.93381419498 1.08998913126 0)
(-1.92652118836 1.20249587273 0)
(-1.91906463613 1.31857459356 0)
(-1.9113541174 1.43807014942 0)
(-1.90333559647 1.56098554665 0)
(-1.8952838782 1.68769641302 0)
(-1.88762425046 1.81729530965 0)
(-1.87808663587 1.93739827859 0)
(-1.86404485669 2.03534981417 0)
(-1.84472285029 2.10516283135 0)
(-1.81991685879 2.13880910772 0)
(-1.78843027254 2.12797702651 0)
(-1.74845137798 2.06537704202 0)
(-1.69809946833 1.94602644669 0)
(-1.63560152991 1.76930978489 0)
(-1.55954927533 1.54150779316 0)
(-1.46951597089 1.27792852348 -4.03831248156e-28)
(-1.36699331925 1.00323933249 4.04758204215e-28)
(-1.25625070495 0.748468025627 0)
(-1.14434999512 0.544002179631 0)
(-1.03927877549 0.410044051574 0)
(-0.946299032408 0.348423510517 0)
(-0.863358282858 0.340209488547 0)
(-0.781176793427 0.350706673641 0)
(-0.686121477588 0.33934262844 0)
(-0.580531490414 0.27403533447 0)
(-0.477102664845 0.144898864559 0)
(-0.443469770699 0.0335074633648 0)
(-0.0641943392929 0.220818878492 -1.61992149475e-27)
(0.217009197973 0.755884972836 1.42357428172e-27)
(0.171937085371 0.882380806382 0)
(0.26212862875 0.614869404694 0)
(0.323234869632 0.478814612472 0)
(0.327832834882 0.357513694608 0)
(0.336321055861 0.255807022696 0)
(0.347250871619 0.188699699767 0)
(0.372214796844 0.160306630696 0)
(0.403423011513 0.153511491706 0)
(0.431311631261 0.14019200203 0)
(0.446784831378 0.0969884719076 0)
(0.449636427435 0.0410928670091 0)
(0.441395498691 -0.0133330500474 0)
(0.422011290954 -0.0650590840748 0)
(0.3917552335 -0.113262866763 0)
(0.352299751272 -0.157597929304 0)
(0.302592744055 -0.198628456791 0)
(0.23219874194 -0.235758524711 0)
(0.145451918203 -0.25639524794 0)
(0.145210681467 -0.239228758248 0)
(0.273915634417 -0.294077915882 0)
(-0.903318263958 -1.01775733074 0)
(2.22230302354 -1.58416162511 0)
(-0.322490430438 -0.22346373833 0)
(-0.542554429726 -0.409139980166 0)
(-0.752809445338 -0.674853996069 0)
(-1.03492905911 -0.793125989766 0)
(-1.28179627387 -0.808404450877 0)
(-1.47226650486 -0.763571283559 0)
(-1.6101590518 -0.684738539828 0)
(-1.70203391618 -0.591166327152 0)
(-1.75797664249 -0.49600704058 0)
(-1.78888577408 -0.407096236017 0)
(-1.80317406537 -0.328519853442 0)
(-1.80623101434 -0.261924762078 0)
(-1.80150487973 -0.207490185618 0)
(-1.79142642476 -0.164610668589 0)
(-1.77772721864 -0.132294084636 0)
(-1.76155021256 -0.109378191987 0)
(-1.74364063995 -0.0947236538985 0)
(-1.72454447337 -0.0873738997728 0)
(-1.70471859274 -0.0866281609518 0)
(-1.68456356666 -0.0920358428616 0)
(-1.66442087014 -0.10334702355 0)
(-1.64455839162 -0.120441371797 0)
(-1.62515947884 -0.143255675167 0)
(-1.60632449806 -0.171720378534 0)
(-1.58808664981 -0.205718945778 0)
(-1.57043808908 -0.245065703932 0)
(-1.55335631417 -0.289506190159 0)
(-1.53682200475 -0.338728948119 0)
(-1.52082431005 -0.392386760321 0)
(-1.50535049334 -0.450129542889 4.67891979252e-28)
(-1.49037991053 -0.511602059481 -4.7019656399e-28)
(-1.47576746105 -0.576551149187 0)
(-1.4612344969 -0.644722058855 0)
(-1.44635607653 -0.715495214404 0)
(-1.4310460831 -0.783209993149 0)
(-1.41705176238 -0.838159717063 0)
(-1.40439814983 -0.875079686601 0)
(-1.39294247034 -0.88723420527 0)
(-1.38273064939 -0.868407902791 0)
(-1.37335346576 -0.813075648614 0)
(-1.36373944614 -0.71714265084 0)
(-1.35217306094 -0.579775357053 0)
(-1.3361357549 -0.405615304004 0)
(-1.31209114911 -0.206546640927 0)
(-1.27553311364 -0.00177043694453 0)
(-1.22164995309 0.185202215784 0)
(-1.14685582161 0.333131945489 0)
(-1.05106309145 0.431150102514 0)
(-0.939551603494 0.483654930306 0)
(-0.822640879635 0.507167381404 0)
(-0.711349595474 0.518952791371 0)
(-0.611890964701 0.521776540276 0)
(-0.523987305658 0.495634948097 0)
(-0.453436093586 0.401881954021 0)
(-0.437893706597 0.231755343796 0)
(-0.357938791512 0.132692956001 0)
(0.112256316264 0.448899232561 0)
(0.244988474258 0.918686342279 0)
(0.203579088388 0.892221502285 0)
(0.271832672953 0.650861633601 0)
(0.290850206383 0.516836156373 0)
(0.295750628883 0.400906523094 0)
(0.315997215411 0.314498596355 0)
(0.341511178097 0.248533294855 0)
(0.369949875534 0.191983682911 0)
(0.392610073682 0.134514263443 0)
(0.407077686631 0.0762123898762 0)
(0.413784400184 0.02297561179 0)
(0.413569935382 -0.027013326161 0)
(0.405438038717 -0.0756785830831 0)
(0.388547529969 -0.122798077272 0)
(0.362959106694 -0.167853375523 0)
(0.330262406862 -0.210302694428 0)
(0.288881137646 -0.250407744562 0)
(0.223925017177 -0.288320670584 0)
(0.131680628898 -0.31407505032 0)
(0.140656574559 -0.301201031606 0)
(0.384967894637 -0.327413345409 0)
(-1.16818494273 -1.02138511427 0)
(3.61287511016 -1.72606538941 0)
(-0.808458898128 -0.308727350195 0)
(-0.603704553403 -0.833083376979 0)
(-0.849272142688 -1.07267801618 0)
(-1.1745554431 -1.08076697188 0)
(-1.39094691017 -1.00127806313 0)
(-1.52245272711 -0.885012890313 0)
(-1.59846666496 -0.754547092023 0)
(-1.63322743548 -0.625568403372 0)
(-1.63974140159 -0.507245707119 0)
(-1.63007688222 -0.403466626988 0)
(-1.61248362921 -0.315089445782 0)
(-1.59147397737 -0.241347314124 0)
(-1.56935557279 -0.180599496006 0)
(-1.54739232727 -0.130888169784 0)
(-1.52628103168 -0.0902949619026 0)
(-1.50631344271 -0.0570581770123 0)
(-1.4875193839 -0.0295894579883 0)
(-1.46982815095 -0.00648408053047 0)
(-1.45318176245 0.0134776097875 0)
(-1.43757870663 0.0313457259366 0)
(-1.42306846754 0.0480267916689 0)
(-1.40972152254 0.064308346434 0)
(-1.39759448535 0.080883206801 0)
(-1.38670420292 0.0983657308796 0)
(-1.37701795105 0.117302939416 0)
(-1.36846121976 0.138174757912 0)
(-1.36093421589 0.16139671593 0)
(-1.35432942103 0.187303612073 0)
(-1.3485276822 0.216160435714 0)
(-1.34344230239 0.248143581647 0)
(-1.33894115819 0.283438589128 0)
(-1.33500450473 0.322301114492 0)
(-1.33148703053 0.364513410339 0)
(-1.32753773066 0.408872341619 0)
(-1.32264870587 0.450649067879 0)
(-1.31626954062 0.487483319602 0)
(-1.30794492539 0.516287242102 0)
(-1.29703186895 0.534247519221 0)
(-1.28292955376 0.538814058801 0)
(-1.26501693362 0.528484056747 0)
(-1.24259856221 0.504065883833 0)
(-1.21499559799 0.469802530459 0)
(-1.18159704434 0.433902073804 0)
(-1.14175931065 0.407700876018 0)
(-1.09455107317 0.402582355798 0)
(-1.03842669094 0.42484648272 0)
(-0.971109891524 0.470921716185 0)
(-0.890295444595 0.527105181338 0)
(-0.795436030869 0.576479791837 0)
(-0.69009699908 0.609096652762 0)
(-0.581299184864 0.626444009201 0)
(-0.478699796556 0.630644629122 0)
(-0.390224140042 0.602641672763 0)
(-0.354231184805 0.500058463328 0)
(-0.386902207966 0.321430260873 0)
(-0.164018161215 0.320654598996 0)
(0.240780209224 0.718453086465 0)
(0.250124233024 1.02813605463 0)
(0.227550202843 0.883596129919 0)
(0.271735421334 0.66220109101 0)
(0.280042757971 0.528624468657 0)
(0.294578692385 0.421604152022 0)
(0.319099672303 0.34369348053 0)
(0.344147658057 0.27983848805 0)
(0.366800192326 0.22206819189 0)
(0.383407355169 0.165210482481 0)
(0.393797547383 0.107710981889 0)
(0.397763965127 0.0478404418119 0)
(0.396028645343 -0.0126539660971 0)
(0.387949159123 -0.0725053413827 0)
(0.372798721625 -0.131395110905 0)
(0.350412203117 -0.18867338984 0)
(0.322325742869 -0.24350631639 0)
(0.286961944841 -0.295580640709 0)
(0.226429376198 -0.34508543158 0)
(0.127644189359 -0.38392685101 0)
(0.136136855758 -0.382422614948 0)
(0.491569005817 -0.388581141614 0)
(-1.38437762421 -1.0160545328 0)
(5.11357186852 -1.80962218624 0)
(-1.45829310379 -0.600213312182 0)
(-0.634944708321 -1.29936453096 0)
(-0.980896213404 -1.36699706959 0)
(-1.2947182784 -1.25080034557 0)
(-1.42751625206 -1.09774940237 0)
(-1.48023075452 -0.93097271866 0)
(-1.49472692424 -0.766470080957 0)
(-1.4822616628 -0.617232625026 0)
(-1.4537506835 -0.488702598604 0)
(-1.41949083554 -0.381368293858 -5.11525182644e-28)
(-1.38565788323 -0.29364277091 5.1720747525e-28)
(-1.35485066053 -0.223109341186 0)
(-1.32783126134 -0.167006395731 0)
(-1.304597538 -0.122640137045 0)
(-1.28479331036 -0.0876813256125 0)
(-1.2678503735 -0.0602576164823 0)
(-1.253102967 -0.0389127979925 0)
(-1.23992120807 -0.0225253759441 0)
(-1.2278157378 -0.0102300142424 0)
(-1.21647856271 -0.00135063809995 0)
(-1.20576626506 0.0046455033206 0)
(-1.1956498059 0.00817744208245 0)
(-1.18615358258 0.00956685666605 0)
(-1.17730414443 0.00905564056616 0)
(-1.16909502254 0.00681863216508 0)
(-1.16147584906 0.00297586546104 0)
(-1.15436296732 -0.00231329612326 0)
(-1.14765590992 -0.00894549742805 0)
(-1.14121798643 -0.0168573366953 0)
(-1.1349171856 -0.0259477009111 0)
(-1.12848753109 -0.0360671079757 -8.13306736005e-28)
(-1.1217673459 -0.046960416656 8.19545110663e-28)
(-1.11481537695 -0.0578233300284 0)
(-1.10812807357 -0.0670855476497 0)
(-1.10173265379 -0.0732535991954 0)
(-1.09560394502 -0.0741308656885 0)
(-1.08973895804 -0.0674071239745 0)
(-1.0839459289 -0.0506043462489 0)
(-1.077775205 -0.0214706358403 0)
(-1.07038011703 0.0214555136931 0)
(-1.06031877767 0.0783024680825 0)
(-1.04545716527 0.147379804494 0)
(-1.0230805136 0.225110664343 0)
(-0.990315768418 0.306862446963 0)
(-0.944912858408 0.388608968744 0)
(-0.886072423326 0.468294461669 0)
(-0.814646856568 0.544969863602 0)
(-0.732603493478 0.615300424371 0)
(-0.642402685013 0.671536077521 0)
(-0.547092145778 0.705762667187 0)
(-0.449975456921 0.718758141208 0)
(-0.354973680411 0.713935487558 0)
(-0.2809078354 0.676029679021 0)
(-0.300147989824 0.555993578557 0)
(-0.283140324535 0.419676583482 0)
(0.0420440550717 0.547556616974 0)
(0.308909806892 0.93988459573 0)
(0.25712060655 1.07135374584 0)
(0.249692101662 0.864118920206 0)
(0.272488232354 0.664160683852 0)
(0.27855924707 0.536588131385 0)
(0.295342612572 0.439668982706 0)
(0.315928865712 0.365611571383 0)
(0.334604839226 0.29950510544 0)
(0.349691543091 0.235732876785 0)
(0.360096498185 0.171663077297 0)
(0.366152785126 0.107286248185 0)
(0.367826246999 0.0428088889244 0)
(0.365815522992 -0.0214877337316 0)
(0.359220155265 -0.0855898720764 0)
(0.34720793881 -0.149540680865 0)
(0.329343489032 -0.212978518332 0)
(0.307043828762 -0.275143054033 0)
(0.279081885093 -0.335520602885 0)
(0.225861423738 -0.394383176461 0)
(0.124966955584 -0.445534918264 0)
(0.130995531404 -0.459287140343 0)
(0.589291279195 -0.459811547488 0)
(-1.56206331616 -1.00865706038 0)
(6.61404386855 -1.87778342942 0)
(-2.30675758297 -1.00653528606 0)
(-0.626108927527 -1.72540624625 0)
(-1.08604116999 -1.58164935958 0)
(-1.31882477375 -1.37439373542 0)
(-1.35758331059 -1.16372182289 0)
(-1.35166925866 -0.952324349823 0)
(-1.32833121766 -0.759369614823 0)
(-1.29045051386 -0.595858525251 0)
(-1.24675460953 -0.462480602526 0)
(-1.20553278594 -0.355896536384 0)
(-1.17071801434 -0.271935230282 0)
(-1.14316158827 -0.206416680897 0)
(-1.12239597425 -0.1553510669 0)
(-1.10744269355 -0.115271933968 0)
(-1.09709698545 -0.083441376589 0)
(-1.09005456191 -0.0578585030588 0)
(-1.08504404525 -0.0371488391953 0)
(-1.0809845981 -0.020393802849 0)
(-1.07710390931 -0.00694896940381 0)
(-1.07297132738 0.00369913058576 0)
(-1.06845222337 0.0120155364222 0)
(-1.06361941934 0.0184561479022 0)
(-1.05865023161 0.0234621323322 0)
(-1.05374411971 0.0275115244695 0)
(-1.04904917459 0.0310392068428 0)
(-1.04455702139 0.0344252211292 0)
(-1.04023112661 0.0379396163831 0)
(-1.03601968629 0.0419736237357 0)
(-1.03183797172 0.046882534999 0)
(-1.02747453157 0.053022749773 0)
(-1.0229205018 0.0604926198832 0)
(-1.01801176089 0.0692985097096 0)
(-1.01257038212 0.0793897748066 0)
(-1.00647517228 0.0905957797841 0)
(-0.999575685349 0.102532884449 0)
(-0.991666823332 0.114934457019 0)
(-0.9825539294 0.127627606457 0)
(-0.972022785179 0.140824287639 0)
(-0.95981007445 0.155483541249 0)
(-0.9455318764 0.173640266971 0)
(-0.928505870269 0.198609861347 0)
(-0.907485654944 0.234706940889 0)
(-0.880405928228 0.286038833345 0)
(-0.844406440042 0.354428350171 -9.79398429017e-28)
(-0.796575431265 0.437392424528 9.13665138744e-28)
(-0.735336730796 0.528247767581 0)
(-0.661623721406 0.618508932017 0)
(-0.578642131286 0.699307381861 0)
(-0.491265603899 0.761413718776 0)
(-0.404877359252 0.795302502582 0)
(-0.320047821108 0.801108247457 0)
(-0.239766884487 0.784270424889 0)
(-0.205591009114 0.722682933978 0)
(-0.248194711223 0.600206872639 0)
(-0.128593414574 0.547336859181 0)
(0.202084998523 0.77059766168 0)
(0.332475468482 1.08066577421 0)
(0.265665468205 1.06601384282 0)
(0.264065501841 0.842065126126 0)
(0.271566603093 0.665137198171 0)
(0.276202395169 0.546872055361 0)
(0.289274785482 0.456986711419 0)
(0.302839851546 0.382833189133 0)
(0.314111496962 0.313389487925 0)
(0.322384998093 0.245545073117 0)
(0.327722894385 0.178138033817 0)
(0.330530888729 0.110922923192 0)
(0.330623131617 0.0432744368291 0)
(0.328879349357 -0.0245474224223 0)
(0.324135922802 -0.0928079794837 0)
(0.315469870931 -0.161821488884 0)
(0.302160909389 -0.231480769078 0)
(0.285491048429 -0.301164514451 0)
(0.264737848495 -0.370267887591 0)
(0.219639783326 -0.438981843036 0)
(0.119634430793 -0.50266741298 0)
(0.12291323653 -0.533970887772 0)
(0.672013383995 -0.539812543406 0)
(-1.70984675148 -0.999885726927 0)
(8.13869159424 -1.91696435113 0)
(-3.28453657108 -1.48391429228 0)
(-0.485907448558 -2.10790368803 0)
(-1.12069466999 -1.74218063824 0)
(-1.24594357778 -1.46056005353 0)
(-1.22109782776 -1.19157543059 0)
(-1.18746159092 -0.939705072359 0)
(-1.14726113791 -0.726854569222 0)
(-1.10017944464 -0.557355369327 0)
(-1.05501258328 -0.425710623364 0)
(-1.018211983 -0.324905112509 0)
(-0.991631418258 -0.248475735476 0)
(-0.974804606431 -0.190703694552 0)
(-0.966441639365 -0.146502333014 0)
(-0.964849341775 -0.111778000464 0)
(-0.968115913281 -0.083524620746 0)
(-0.974228426815 -0.0597522838622 0)
(-0.981275140309 -0.0393585754604 0)
(-0.987712656673 -0.0218792884538 0)
(-0.992545928784 -0.00716881386857 0)
(-0.995346782525 0.00485404206908 0)
(-0.996150566165 0.0143404707113 0)
(-0.995295659474 0.0215555488168 0)
(-0.993136763297 0.0268700844397 0)
(-0.990067514234 0.0306909341333 0)
(-0.986583279712 0.0334255709857 0)
(-0.983031746422 0.035416523761 0)
(-0.979522555818 0.0369131018371 0)
(-0.975965302618 0.0381173437605 0)
(-0.972194238819 0.039282597551 0)
(-0.968003606951 0.0407054718386 0)
(-0.963156384386 0.0428336675223 0)
(-0.957390729957 0.0461287980058 -1.54624828629e-27)
(-0.950471122345 0.0510506284912 1.5567955919e-27)
(-0.942234769057 0.0580322490168 0)
(-0.932559590431 0.0674486488796 0)
(-0.921320056874 0.0797329090862 0)
(-0.908378053289 0.0953939599338 0)
(-0.893536287645 0.115080884284 0)
(-0.876454039692 0.139702630901 0)
(-0.856533642749 0.170585979544 0)
(-0.83278002379 0.209700000677 0)
(-0.803633178911 0.259782953248 0)
(-0.766910648076 0.323909866602 0)
(-0.720102911217 0.403966976421 0)
(-0.661552988614 0.497896161326 0)
(-0.591621731696 0.598651315976 0)
(-0.512954336521 0.696687455371 0)
(-0.42955418542 0.781919155452 0)
(-0.346548638118 0.8443457085 0)
(-0.270104716454 0.873983886865 0)
(-0.200023727684 0.87118547272 0)
(-0.146326736915 0.834224804863 0)
(-0.156251325933 0.754917912756 0)
(-0.162443734431 0.660465244995 0)
(0.0365889302803 0.701987963078 0)
(0.299637957435 0.957646293804 0)
(0.331185889155 1.14715723613 0)
(0.270703551909 1.03518397781 0)
(0.267476319963 0.820310729591 0)
(0.265122292707 0.664245855446 0)
(0.266622208617 0.554836741858 0)
(0.272863017701 0.4684758001 0)
(0.278401297694 0.39259238798 0)
(0.282091536315 0.320243251553 0)
(0.283992980569 0.249712130805 0)
(0.28474665762 0.180241764629 0)
(0.284817850218 0.111327417662 0)
(0.283930041897 0.0421821522129 0)
(0.283048556717 -0.0271624588426 0)
(0.280657108475 -0.0977414730452 0)
(0.27568709303 -0.170126280564 0)
(0.267192788803 -0.244502596453 0)
(0.256303764944 -0.320481431231 0)
(0.242816579537 -0.397516710017 0)
(0.206509650968 -0.475712692298 0)
(0.110450401162 -0.551786619824 0)
(0.113016224239 -0.602701460422 0)
(0.738192243518 -0.624613367314 0)
(-1.82904242759 -0.99054620737 0)
(9.70507731661 -1.9699849387 0)
(-4.37300129927 -2.03050735943 0)
(-0.198283663295 -2.43501372647 0)
(-1.12209185332 -1.84775428905 0)
(-1.1168510817 -1.5081013582 0)
(-1.06294164363 -1.18649802954 0)
(-1.02237819394 -0.906594096441 0)
(-0.977727709063 -0.685272965493 0)
(-0.931470489219 -0.517562621098 0)
(-0.892939821825 -0.392881992359 0)
(-0.86662722184 -0.30159114942 0)
(-0.852717950313 -0.2353761858 0)
(-0.850030446529 -0.187197488605 0)
(-0.856852196156 -0.150890160395 0)
(-0.870966302408 -0.121768042378 0)
(-0.889810596781 -0.0965193012646 0)
(-0.910545077498 -0.0731699057087 0)
(-0.930425536934 -0.05106435691 0)
(-0.947348382042 -0.0304914623982 0)
(-0.960153021214 -0.0120943433249 0)
(-0.968583742343 0.00358278805523 0)
(-0.973030064898 0.0162526055184 0)
(-0.974225383231 0.026283104763 0)
(-0.973145253145 0.034081782291 0)
(-0.970695161014 0.0398795593345 0)
(-0.967552383675 0.0440202530537 0)
(-0.964170344773 0.0468038167509 0)
(-0.960745629016 0.0486243473126 0)
(-0.957250510735 0.0499085896116 0)
(-0.953471812889 0.0512000823228 0)
(-0.949040752016 0.0531312293617 0)
(-0.943467112657 0.0563399691882 0)
(-0.936207814732 0.0614030046543 0)
(-0.926763599822 0.0687527582571 0)
(-0.914763815907 0.0786167000443 0)
(-0.900002633301 0.0910233862835 0)
(-0.88243617258 0.105961986949 0)
(-0.862150967151 0.123593020113 0)
(-0.839267795776 0.144493308729 0)
(-0.8137678902 0.169917955494 0)
(-0.785253019574 0.202033248457 0)
(-0.752627457234 0.244039803902 0)
(-0.713823215406 0.299985536728 0)
(-0.665874911104 0.3732895534 0)
(-0.60593179317 0.464637243068 0)
(-0.533923544433 0.569089853245 0)
(-0.453521545492 0.676838686913 0)
(-0.370665618296 0.777248287403 0)
(-0.288531056604 0.860330929097 0)
(-0.212478138794 0.918428894816 0)
(-0.14853732921 0.939583826537 0)
(-0.10141130477 0.921000313476 0)
(-0.0842156829155 0.866813247746 0)
(-0.104670309635 0.787903287756 0)
(-0.0473858514426 0.74731628552 0)
(0.174976423969 0.863497841317 0)
(0.343605674171 1.09085436233 0)
(0.31821042134 1.15950511599 0)
(0.268550299516 0.994805693951 0)
(0.259664625589 0.798971719907 0)
(0.250326731401 0.659660607415 0)
(0.246482120586 0.556997687067 0)
(0.244550986165 0.471963195442 0)
(0.241891693994 0.394450657841 0)
(0.238332469928 0.320393155075 0)
(0.234613920419 0.248759020232 0)
(0.23164157589 0.178970824268 0)
(0.22981389883 0.110291222724 0)
(0.228871276328 0.0415129976679 0)
(0.229264747998 -0.0278998547832 0)
(0.229591929691 -0.0995486951739 0)
(0.228474165324 -0.174231236487 0)
(0.224827515791 -0.252328596881 0)
(0.219658448167 -0.333681932314 0)
(0.213222142077 -0.41789626043 0)
(0.185800900843 -0.505024758173 0)
(0.0962475052042 -0.59305653934 0)
(0.101412397248 -0.664872128125 0)
(0.785238929297 -0.711932554732 0)
(-1.91791158411 -0.982059459831 0)
(11.3167543242 -2.03370129416 0)
(-5.56612444631 -2.59303983256 0)
(0.240456291299 -2.67656500025 0)
(-1.13203001547 -1.90503405433 0)
(-0.96079954879 -1.52870103374 0)
(-0.912315331008 -1.16201338099 0)
(-0.875123246463 -0.865509714397 0)
(-0.832011295004 -0.643122548694 0)
(-0.791487967421 -0.481519794714 0)
(-0.762872075644 -0.36679365644 0)
(-0.74886943838 -0.287266694273 0)
(-0.748557067871 -0.232911012741 0)
(-0.76061946788 -0.195463267222 0)
(-0.783183257034 -0.167559269682 0)
(-0.813632103989 -0.143854917261 0)
(-0.848715724668 -0.120442327775 0)
(-0.884413777479 -0.0952536820659 0)
(-0.916768655204 -0.0684130680365 0)
(-0.943012951418 -0.0415305660793 0)
(-0.961978442228 -0.0165008881957 0)
(-0.973962288054 0.00505873455685 0)
(-0.979967199543 0.0229575655305 0)
(-0.980802952546 0.0368680702305 0)
(-0.978436358356 0.0471390763841 0)
(-0.974481975068 0.0544157128451 0)
(-0.970011910489 0.0592560559131 0)
(-0.96564076144 0.0621175907377 0)
(-0.961601055456 0.0635069690306 0)
(-0.957801150934 0.0641037792122 0)
(-0.953840924449 0.0647990180191 0)
(-0.949029277382 0.0666071932107 0)
(-0.94245647617 0.0705123297736 0)