/*--------------------------------*- C++ -*----------------------------------*\
| =========                 |                                                 |
| \\      /  F ield         | OpenFOAM: The Open Source CFD Toolbox           |
|  \\    /   O peration     | Version:  v1806                                 |
|   \\  /    A nd           | Web:      www.OpenFOAM.com                      |
|    \\/     M anipulation  |                                                 |
\*---------------------------------------------------------------------------*/
FoamFile
{
    version     2.0;
    format      ascii;
    class       volScalarField;
    location    "400";
    object      p;
}
// * * * * * * * * * * * * * * * * * * * * * * * * * * * * * * * * * * * * * //

dimensions      [0 2 -2 0 0 0 0];


internalField   nonuniform List<scalar> 
6400
(
0.183525371822
0.183124347658
0.182725305917
0.182495089853
0.182602450572
0.182507944979
0.181799447655
0.180383805616
0.178418929904
0.175961015245
0.173095082061
0.169914746286
0.166514425298
0.162983035407
0.159400089443
0.155833740371
0.152340301026
0.148964765275
0.145741925065
0.1426977708
0.139850956042
0.137214187978
0.13479546747
0.132599146476
0.130626799201
0.128877920165
0.127350470525
0.126041297246
0.124946451285
0.124061429145
0.123381353385
0.122901097486
0.122615388724
0.122518975449
0.122606942567
0.122875140129
0.123320265736
0.123937879969
0.124720230497
0.125660404286
0.126753374226
0.127993427591
0.129374809921
0.130891872211
0.132539136658
0.134311317313
0.13620331364
0.138210181199
0.140327079275
0.142549194452
0.144871639735
0.147289330723
0.14979684258
0.152388254545
0.155056991387
0.157795674059
0.160595993438
0.163448622201
0.166343179057
0.169268257496
0.172211526877
0.17515990808
0.178099818306
0.181017471118
0.183899208713
0.186731835076
0.189502906259
0.19220091839
0.194815326838
0.197336330113
0.19975432271
0.202058793947
0.20423624389
0.206267093178
0.208123278065
0.209767578971
0.211144743741
0.212150584676
0.212642454402
0.212664750919
0.183315908039
0.1828867281
0.182659095816
0.182481946399
0.182307473594
0.182302835102
0.18165123451
0.180247807954
0.17825252479
0.17575042839
0.172839616378
0.169619346455
0.166186842664
0.162632036981
0.159034310311
0.155460976749
0.151967136171
0.14859643844
0.145382364795
0.142349726928
0.139516180081
0.136893626493
0.134489446137
0.132307532427
0.130349136516
0.128613537368
0.127098561801
0.125800979303
0.124716797805
0.123841485918
0.123170139306
0.122697579494
0.122418363634
0.122326808169
0.122417384397
0.1226857783
0.123129912492
0.123746677421
0.12453050045
0.125474408653
0.126570883682
0.127813563592
0.129196491596
0.130713975827
0.132360548573
0.134130953349
0.136020130023
0.138023185061
0.140135341789
0.142351866205
0.144667967851
0.147078675463
0.149578691809
0.152162233118
0.154822863581
0.157553336277
0.16034545585
0.163189977481
0.166076558123
0.168993771992
0.171929199861
0.17486959424
0.177801116734
0.180709633735
0.183581048524
0.186401638957
0.189158361835
0.191839066716
0.194432556484
0.196928441548
0.199316690003
0.201586707748
0.203725705529
0.205716280151
0.207533901647
0.209144875291
0.210501181846
0.211525777299
0.212108641856
0.212216068603
0.183730382724
0.183175678568
0.182748786133
0.182536210891
0.182173548858
0.181693557735
0.180731546334
0.179168804107
0.177053516093
0.174462712383
0.171494059434
0.16824598104
0.164812821466
0.161280270453
0.15772289169
0.154203193188
0.150771867976
0.147468777741
0.144324323014
0.141360938686
0.138594545377
0.136035861008
0.133691529687
0.131565058672
0.129657574406
0.127968418424
0.126495606707
0.125236176157
0.124186442647
0.123342199886
0.122698870218
0.122251565693
0.121994952341
0.121923157176
0.122030977725
0.122316753234
0.122779188919
0.123411704237
0.124206772556
0.125158705961
0.126261296998
0.12750849574
0.128894438791
0.130413467045
0.132060134406
0.1338292122
0.135715683276
0.137714719876
0.139821639868
0.142031837458
0.144340685824
0.146743411721
0.149234944623
0.151809746624
0.154461632533
0.157183593156
0.159967636925
0.162804666707
0.165684408404
0.168595406073
0.171525093752
0.174459948425
0.177385720637
0.180287731262
0.183151211165
0.18596165315
0.18870514427
0.191368625707
0.193940001792
0.196408084259
0.198762259368
0.200991746172
0.203084395671
0.205024900678
0.20679225789
0.208356817732
0.209678098286
0.210698947424
0.211323202421
0.211480686513
0.184558583626
0.183928344316
0.183270876412
0.182638854004
0.181859110909
0.180850227283
0.179456045688
0.177602660781
0.175296378282
0.172591131363
0.169567590033
0.166312613073
0.162910574232
0.159437984519
0.155961058266
0.152535010291
0.149204459745
0.146004453417
0.142961766987
0.140096260013
0.137422152418
0.13494915567
0.132683434437
0.130628399298
0.128785344799
0.127153952405
0.125732678647
0.124519048814
0.123509879237
0.122701454161
0.122089656755
0.121669972227
0.121437244064
0.121385680729
0.121511098243
0.121814952355
0.122294231214
0.122940303965
0.123747052943
0.124708343784
0.125818069208
0.127070253797
0.12845908255
0.129978926617
0.131624366149
0.133390207679
0.135271490567
0.137263476317
0.139361614991
0.141561483463
0.143858691989
0.146248757611
0.148726946238
0.151288088854
0.153926381622
0.156635183488
0.159406828141
0.162232468708
0.165101974668
0.168003898447
0.17092552445
0.173853007443
0.176771597876
0.179665945962
0.182520461436
0.185319692547
0.188048701811
0.190693414852
0.193240780137
0.195678834825
0.197996545615
0.200183238008
0.202227739258
0.204117096634
0.205834316526
0.207355140544
0.208647161335
0.209668427957
0.21032196351
0.210532224116
0.185455281454
0.184625049802
0.18362482632
0.18250307824
0.181215843761
0.179703467634
0.177875748096
0.175692207408
0.173159690529
0.170320497437
0.167238389532
0.163984419364
0.160628651383
0.157235041777
0.153859107632
0.150547273979
0.1473372237
0.144258763578
0.141334897623
0.138582923825
0.13601545569
0.133641323501
0.131466341382
0.129493943246
0.127725699114
0.12616172571
0.124801004962
0.123641627385
0.122680984611
0.121915926687
0.121342846142
0.120957572895
0.120755150974
0.120730399445
0.120880627048
0.121207858857
0.121707829953
0.122370951862
0.123191777133
0.124164403768
0.125282900616
0.126541383264
0.127934076947
0.12945536615
0.131099837258
0.13286231347
0.134737877679
0.136721877421
0.138809905187
0.140997747661
0.143281298529
0.145656431842
0.14811883626
0.150663815014
0.153286061226
0.15597942349
0.158736680598
0.161549345861
0.164407523724
0.167299841179
0.170213468223
0.173134240258
0.176046877335
0.178935298892
0.181783013164
0.184573533611
0.187290777206
0.189919574208
0.192445831554
0.194856717573
0.197140737346
0.199287264581
0.20128591399
0.203125667068
0.204793115081
0.206269119357
0.207527225707
0.208541023992
0.209206566103
0.209467222348
0.185985444995
0.184769806715
0.18343516952
0.181882538083
0.180136475068
0.178176858431
0.175963563621
0.173481683393
0.170744387326
0.16778803316
0.164663208089
0.161425874638
0.158131361057
0.154830507001
0.151567812135
0.148380869423
0.145300573545
0.142351726225
0.139553803234
0.136921747821
0.13446671998
0.132196768742
0.130117414821
0.128232143007
0.126542809337
0.125049969247
0.123753133644
0.122650967029
0.121741457188
0.121022054291
0.120489690254
0.120140525493
0.119969857512
0.119973882466
0.120153065911
0.120506112347
0.121026746212
0.121707914393
0.122543892327
0.123528830227
0.124656862426
0.125922146004
0.127318917632
0.128841552607
0.130484622808
0.13224294937
0.134111644594
0.136086136084
0.138162165075
0.140335750583
0.142603111823
0.144960543645
0.147404243415
0.149930093112
0.152533406269
0.155208655748
0.157949204998
0.160747064749
0.16359270065
0.166474925208
0.169380883305
0.172296160674
0.175204996537
0.178090611766
0.180935632387
0.183722585127
0.186434209233
0.189054301728
0.191567776441
0.193960914222
0.196221786436
0.198339747585
0.200304915212
0.202107574098
0.203736952887
0.205178128149
0.20640657908
0.207412836607
0.208080870258
0.208388269321
0.18538477486
0.184026189938
0.182507202424
0.180643034917
0.178549958496
0.17624402785
0.173729380264
0.171014943434
0.168121768584
0.165083112949
0.16193986388
0.158735640651
0.15551313814
0.152311708884
0.14916614099
0.146106241131
0.143156921582
0.140338559678
0.137667483879
0.135156500096
0.132815409582
0.130651491253
0.128669933255
0.12687420712
0.125266382911
0.123847385701
0.122617195959
0.121575005869
0.120719359388
0.120048271355
0.119559190633
0.119248648957
0.119112332496
0.119147685853
0.119357215431
0.119737569235
0.120280692799
0.120981139638
0.121833291317
0.122831429166
0.123969755073
0.125242445357
0.126643717777
0.128167904651
0.129809527839
0.131563371093
0.133424543734
0.135388527708
0.137451198395
0.139608808399
0.141857923978
0.144195306014
0.146617731274
0.149121756276
0.151703433589
0.154357996228
0.157079539974
0.159860728073
0.162692537301
0.165564112364
0.168462703375
0.171373769144
0.174281177063
0.177167553979
0.18001470513
0.182804355586
0.18551803837
0.18813867402
0.190650329089
0.193038375087
0.19529051597
0.19739599298
0.199345119284
0.201128890256
0.202738005084
0.204161120441
0.205371438883
0.206377377691
0.207046165392
0.207396841419
0.183754208579
0.182397400097
0.180813239978
0.178765736793
0.176452637689
0.173917277472
0.171200274943
0.168331511426
0.165341043979
0.162261631545
0.159127812927
0.155974138201
0.15283357947
0.149736397374
0.146709533535
0.14377638427
0.14095683507
0.138267455302
0.135721785867
0.133330674063
0.131102623424
0.129044134876
0.127160022079
0.125453690241
0.123927372689
0.122582322645
0.121418961936
0.120436997693
0.119635528176
0.119013127504
0.118567776966
0.118296533209
0.118195744898
0.118263804018
0.11850383633
0.118911642852
0.119478155078
0.120198606515
0.121067620159
0.122079614839
0.123228847427
0.124509489892
0.125915711623
0.12744176797
0.129082092937
0.130831392468
0.132684732295
0.134637611577
0.136686010994
0.138826401799
0.141055701711
0.143371166365
0.145770208208
0.148250142414
0.150807872533
0.153439525615
0.156140079194
0.158903020273
0.16172000243
0.164580683831
0.167472583804
0.170381208173
0.173290208277
0.176181821114
0.179037085718
0.181837350873
0.184562892407
0.187196025645
0.189720246488
0.192119914151
0.194382475843
0.196496887068
0.198453274499
0.200242895795
0.201856615661
0.20328605509
0.204498668028
0.205519625003
0.206195740501
0.206588704604
0.181367539385
0.180049599938
0.178457487293
0.176325039822
0.173901210757
0.171242557555
0.168416972989
0.165470320031
0.162440977935
0.159362798919
0.156266729251
0.153181275753
0.150132534278
0.14714408752
0.144236929917
0.141429449235
0.138737479315
0.136174420603
0.133751418563
0.131477583554
0.129360232291
0.127405131026
0.12561672385
0.12399833471
0.122552336288
0.121280282899
0.120183011187
0.119260721112
0.118513046577
0.117939088255
0.117537312332
0.117305342962
0.11724039719
0.117341687782
0.117612076048
0.118046950511
0.118636833478
0.119377422113
0.12026354413
0.121289721823
0.122450236978
0.123739226592
0.125150778596
0.126679034131
0.128318296948
0.130063147836
0.131908558349
0.133849994349
0.135883496448
0.138005720869
0.140213921229
0.142505856562
0.144879613518
0.147333333174
0.149864870235
0.152471374285
0.155148842553
0.157891774562
0.16069266383
0.163541895448
0.16642743379
0.169335057398
0.172248369023
0.175149600827
0.178018984876
0.180838306921
0.183586463985
0.186245512188
0.188798854364
0.191229545552
0.193525158859
0.195674304653
0.197666451575
0.199492900703
0.201143473539
0.202611328585
0.203856105556
0.204914971325
0.205612727376
0.206051825836
0.178407125624
0.177146505221
0.175581961633
0.17343504582
0.170983858799
0.168287243279
0.165431629394
0.162473265197
0.159456977507
0.156418186195
0.153386105709
0.150385571486
0.147438170007
0.144562874959
0.141776392048
0.13909334484
0.136526400385
0.134086391505
0.131782461096
0.129622230585
0.127611981758
0.125756836733
0.12406092257
0.122527511414
0.121159130743
0.119957642155
0.118924296529
0.118059783457
0.117364269904
0.116837360677
0.11647790916
0.116283999173
0.116254013949
0.116388591509
0.116689091862
0.117150354408
0.117763293166
0.118523947208
0.119427293369
0.120467910123
0.121640070708
0.122937849328
0.12435522444
0.12588619046
0.127524881141
0.129265704009
0.131103480885
0.133033584241
0.135052054784
0.13715568191
0.139342018544
0.141609311775
0.143956340154
0.146382114096
0.148885518237
0.151464848386
0.154117216269
0.15683834609
0.159621691709
0.162458610918
0.165337665866
0.168245220088
0.171164950228
0.174079792787
0.176968863591
0.179815627537
0.182597322834
0.185296030108
0.187896024556
0.190378533887
0.192732616655
0.194947049039
0.197009485195
0.198910771395
0.200638782395
0.202185138272
0.203501860263
0.204628375869
0.205369115384
0.20586559182
0.175016045183
0.17383051043
0.172322223919
0.170212707075
0.167795504344
0.165125543485
0.162301058155
0.159383858941
0.156423154188
0.153455740513
0.150510164273
0.147609215793
0.144771711196
0.142013597391
0.139348601587
0.136788601998
0.134343858006
0.132023184892
0.129834115289
0.127783059442
0.125875460358
0.12411593398
0.122508386079
0.121056101266
0.119761801894
0.118627677721
0.117655398415
0.116846135287
0.116200572205
0.115718786502
0.115399918708
0.115242354525
0.115246044913
0.115414776109
0.115745107318
0.116230335886
0.116865357647
0.117645577886
0.118565924186
0.119620945176
0.120804867912
0.122111681706
0.123535235853
0.125069353721
0.126707965646
0.128445261006
0.130275855403
0.132194962115
0.134198550093
0.136283472969
0.138447527017
0.140689403756
0.143008571257
0.145404925711
0.147878420759
0.15042863661
0.153053789081
0.155751088271
0.158514967308
0.161338060836
0.164209621371
0.167117069312
0.170044109719
0.172975429314
0.175888209835
0.17876904887
0.181593253573
0.184343331724
0.187006681584
0.189561643032
0.192001430068
0.194316207928
0.196488883164
0.19850853824
0.200360846084
0.202031692764
0.20346982614
0.204704765576
0.205521294756
0.206099006095
0.171333031283
0.170233499136
0.168801216426
0.166765731869
0.164425888747
0.161829219173
0.159080881963
0.15624457329
0.153372087417
0.15050111048
0.147660015627
0.144870536852
0.142149874608
0.139512058837
0.136968803449
0.134530032726
0.132204225466
0.129998667217
0.127919656381
0.125972680361
0.124162562936
0.122493578936
0.120969534024
0.119593810553
0.118369381677
0.117298798191
0.116384163438
0.115627124601
0.115028858341
0.114589894567
0.114309707372
0.114187057324
0.114222918773
0.114422285551
0.114780555946
0.115289927253
0.115946563416
0.116745890083
0.117682878462
0.118752076254
0.119947672157
0.121263573234
0.122693497983
0.124231089593
0.125870054465
0.127604328775
0.129428270555
0.131336868948
0.133325941744
0.135392322981
0.137533984437
0.139749983191
0.142040457182
0.144406182235
0.146848133107
0.149367385299
0.151963042341
0.154634172126
0.157376046634
0.160182982853
0.163044897157
0.16595083777
0.168884116499
0.171832126788
0.174768949687
0.177686194293
0.18055788558
0.183367550621
0.186110201359
0.188758936251
0.191310875784
0.193758162087
0.196077617473
0.198256625947
0.200280630109
0.202129715944
0.203752082478
0.205156693461
0.206101329645
0.206805709235
0.16748293616
0.166472725957
0.165127078465
0.163189083154
0.160955061585
0.158463277051
0.155822247685
0.153094858511
0.150334043951
0.147577785057
0.144854407538
0.14218510575
0.139586159283
0.137070404879
0.134648218052
0.13232816253
0.130117441682
0.128022233257
0.126047949
0.124199435691
0.122481122685
0.120897118073
0.119451257643
0.118147113321
0.116987968168
0.11597676687
0.115116059486
0.1144079624
0.113854112304
0.113455464772
0.113211910416
0.113122721717
0.113189469646
0.113417188284
0.113801468049
0.114334026176
0.115011351672
0.115828952905
0.116781849959
0.117864602416
0.119071375012
0.120396008071
0.121832102788
0.123373129034
0.125012564351
0.126744070965
0.128561707474
0.130460181925
0.13243508251
0.134483123757
0.13660239149
0.138792183016
0.14105326396
0.143387291654
0.145796031402
0.14828245997
0.150846031028
0.153488226984
0.15620483658
0.158992259003
0.161840821547
0.164741407466
0.16767636302
0.170636336532
0.173592049815
0.176543414756
0.179467385071
0.182343936489
0.18517992661
0.18794495537
0.190628112252
0.193224095676
0.195718950656
0.198100779338
0.20035261299
0.202448422756
0.204332402473
0.205983355127
0.207130309439
0.208027257017
0.163567418155
0.162645095643
0.161390236366
0.159562968268
0.157451471672
0.155084119901
0.152570228665
0.149969967112
0.147336293761
0.144706882312
0.142109917795
0.139566253494
0.137091616172
0.134698088145
0.132395159262
0.130190467448
0.128090341021
0.126100207742
0.124224903975
0.12246889907
0.120836443207
0.119331646617
0.117958500632
0.116720852655
0.115622346697
0.114666343399
0.113855840255
0.113193406159
0.112681094194
0.112320222098
0.112111098345
0.112053603558
0.112149763124
0.112404178797
0.112812981265
0.113367446729
0.114064239695
0.11489894114
0.115866622187
0.116961868739
0.118178843841
0.119511348195
0.120952893522
0.122496799766
0.124136326898
0.125864861674
0.127676133506
0.129564528935
0.131525344837
0.133555047817
0.135651817457
0.137815003922
0.14004591506
0.142347187384
0.144720822354
0.147172454514
0.149700987669
0.152310959311
0.154998210205
0.157761061385
0.160589969578
0.163477130451
0.166404379052
0.169367707285
0.172338186706
0.17532052333
0.178308068775
0.181258612223
0.184178012304
0.187051551268
0.189871537551
0.192633602069
0.195330468213
0.19795313692
0.200485547503
0.202898020426
0.205130493533
0.207125298225
0.208589419686
0.209795935898
0.159665655299
0.15882720839
0.157663158836
0.155952516919
0.153971537934
0.151738984951
0.149363200117
0.146900381146
0.144402693671
0.141906957081
0.139441015143
0.137025385942
0.134675399793
0.132402629916
0.13021597549
0.128122464296
0.126127864854
0.124237153874
0.122454863106
0.120785318717
0.119232784404
0.117801521715
0.116495784061
0.115319761422
0.114277490966
0.113372752258
0.112608973152
0.111989148186
0.11151569686
0.111190179194
0.111013196592
0.110985451552
0.111109852061
0.11138963814
0.11182140853
0.112396217424
0.113110914242
0.113961151128
0.114942048718
0.116048231709
0.117273886365
0.11861280743
0.120058454425
0.121604034631
0.123242613556
0.124967324415
0.126771548605
0.128649328541
0.130595653765
0.132606549142
0.134680358143
0.136816240914
0.139015864545
0.141283194863
0.143619478575
0.146034097542
0.148524295364
0.151097772897
0.153750124551
0.156480274314
0.159279408977
0.162142418086
0.16505239659
0.168011873103
0.171008420807
0.174013675
0.177029766243
0.180035949387
0.183028300629
0.186000658706
0.188950544085
0.191878821769
0.194786056384
0.197670168908
0.200520389751
0.20330839257
0.205972696357
0.208421997738
0.210364603915
0.212042209511
0.155838336562
0.155078295611
0.154002367013
0.15240909305
0.150560409035
0.148466280726
0.146232888651
0.143911712657
0.141553564918
0.139193954311
0.136860153538
0.134572252515
0.132345219101
0.130190242143
0.128115819832
0.126128599107
0.124234035108
0.122436897414
0.120741638568
0.119152636559
0.117674325638
0.116311234396
0.115067953262
0.113949052641
0.112958969227
0.112101882453
0.11138161505
0.110801548016
0.110364414023
0.110071871917
0.109924622382
0.10992465835
0.110077346946
0.110381851658
0.110834048174
0.111427239822
0.112157944037
0.113021797506
0.114013937959
0.11512903188
0.11636131187
0.117704603069
0.119152352584
0.120697706747
0.122333560163
0.124052844567
0.125848581203
0.127714443071
0.129645197847
0.131636107276
0.13368589572
0.13579328882
0.137959955688
0.140191900037
0.142488234842
0.144863011641
0.147310910063
0.149841464518
0.152450708329
0.155138036676
0.15789655606
0.160729100465
0.163626823186
0.166566694358
0.169549521114
0.172557584564
0.175583903906
0.178617817101
0.181655841473
0.184697971879
0.187748578911
0.190816359578
0.193911848928
0.197043800354
0.200211693392
0.203394981755
0.206535511213
0.209513305098
0.212041887618
0.214217018338
0.152131175366
0.151443282388
0.150451010915
0.148972282202
0.147253352025
0.145296467262
0.143204869977
0.141024953424
0.138805821214
0.136581318675
0.134377936769
0.132215209258
0.130107716246
0.128066319045
0.126099237966
0.124212906808
0.122412657867
0.120703246564
0.119089224568
0.117575172699
0.116165811689
0.11486601503
0.113680751172
0.112614979673
0.111673520277
0.110860918172
0.110181343579
0.109638509093
0.109235407623
0.108973755104
0.108854324262
0.108880385692
0.109059621087
0.109387562196
0.109858184194
0.110467807759
0.111212472239
0.112087769808
0.113088849634
0.114210429862
0.115446812592
0.116791892973
0.118239137202
0.119781705059
0.121412322087
0.123123808498
0.124908817045
0.126760573432
0.128673897543
0.130642786576
0.132666725607
0.134743881189
0.136875292409
0.139069834693
0.141323039052
0.143653549462
0.146053565113
0.14853259498
0.151089507242
0.153728171103
0.156449418889
0.159233459303
0.162085217088
0.164988728717
0.167935806567
0.170914563801
0.173917119348
0.176937463225
0.179974947127
0.183034579376
0.186127503499
0.18927099764
0.192486626396
0.195796194422
0.199212617265
0.202727832121
0.206284435026
0.209713713607
0.212721757252
0.215250861726
0.148577710489
0.147955409129
0.14704126569
0.145671896855
0.144077290064
0.142253150904
0.140299296128
0.138256935048
0.136173265371
0.134080217002
0.132003332987
0.129961466771
0.127968766469
0.126035789391
0.124170560316
0.122379422671
0.120667729242
0.119040365946
0.117502113425
0.116057858763
0.114712679723
0.113471830894
0.112340663275
0.111324504353
0.110428518663
0.109657571852
0.109016132172
0.108508183157
0.108136935247
0.107904265492
0.107811251246
0.107861912638
0.108064065208
0.108412994343
0.108901073191
0.109525326953
0.110281837214
0.111166230938
0.112173701557
0.113299037333
0.114536626403
0.115880485056
0.117324097452
0.11886075724
0.120482963712
0.122183556385
0.123954837738
0.125789377771
0.127682606236
0.129626611329
0.131622043661
0.133666573866
0.135759633164
0.137913505158
0.140119090393
0.142398186806
0.144744597867
0.147165351244
0.14967384686
0.152249072682
0.154905248545
0.157629775286
0.16041691724
0.163255168801
0.166134271204
0.169043874486
0.171976224011
0.174927079558
0.177897694601
0.180896087735
0.183937922723
0.18704680543
0.190252920929
0.193588643166
0.19707714959
0.20071677608
0.204413213011
0.207907966772
0.211397723946
0.215322077701
0.14520177023
0.144638541022
0.143796456235
0.142529801327
0.141052268757
0.139354195666
0.137531693245
0.13562088035
0.133666969838
0.13169981614
0.129743902436
0.127817301778
0.12593368979
0.124103330021
0.122334108427
0.120632365548
0.119003575627
0.117452852576
0.115985286258
0.114606123829
0.113320823488
0.112135014966
0.111054401565
0.11008463185
0.109231161606
0.108499128828
0.107893262733
0.107417777398
0.107076070759
0.106870305701
0.106802173296
0.106876213559
0.107099163927
0.107466848695
0.107970442424
0.108607229638
0.109373297268
0.110264281938
0.111275415302
0.112401564762
0.113637190524
0.114976517329
0.116412961542
0.117940158206
0.119550219514
0.121236168627
0.122990068135
0.124803451061
0.126673169367
0.128588750372
0.130552085426
0.132560579132
0.134610718946
0.13671833134
0.138872827656
0.141091269534
0.143389643609
0.145743303832
0.148178238968
0.150684895677
0.153263342111
0.155905555289
0.158602716331
0.161343434022
0.164115943847
0.166909076256
0.169713953364
0.172525441595
0.175343766351
0.178175907296
0.181036653025
0.183949064199
0.186943360206
0.190051939643
0.193294275043
0.196645410145
0.199884070825
0.20294565574
0.206562582224
0.212654022959
0.142019605696
0.141509177499
0.14073290702
0.139561516431
0.138192776223
0.136612759125
0.134913738124
0.13312696507
0.131295675858
0.12944756832
0.127606007832
0.125788218704
0.124007377614
0.122273461102
0.120594255302
0.118976155755
0.117424820812
0.115945646148
0.114544065572
0.113225696538
0.111996363025
0.110862034558
0.109828718093
0.108902329856
0.108088566847
0.107392802527
0.106820011345
0.106374620581
0.106060146313
0.105879022596
0.105833913587
0.10593013934
0.106171983022
0.106556342417
0.107073364569
0.107720469187
0.108493706858
0.109388681434
0.110400637945
0.111524548823
0.112754858524
0.114086180999
0.11551161088
0.117025468749
0.118619207436
0.120286209541
0.122018596651
0.123806330725
0.125648393782
0.127531239459
0.129457402236
0.131424743965
0.133427279019
0.135479568513
0.137589640793
0.139744308451
0.141968157742
0.144253980905
0.146609038073
0.149030100545
0.151513047249
0.154049472561
0.156628251006
0.159236072934
0.161858730793
0.164482356386
0.167094772759
0.169686746187
0.172253107769
0.174793566035
0.177312997834
0.179820853498
0.182328741341
0.184843839497
0.187351985197
0.189770659376
0.191746683146
0.192914365138
0.193371182594
0.197059895643
0.139041670922
0.13857813688
0.137861502374
0.136777587204
0.135508887635
0.134038211043
0.13245396508
0.130782841816
0.129066169673
0.127329473288
0.125594990291
0.123879059412
0.122194348557
0.120550554068
0.118955387419
0.117415331511
0.115936257767
0.114523859471
0.113183911077
0.111922376324
0.110745403023
0.109659246681
0.108670159995
0.107784272071
0.107007474084
0.106345340202
0.105803077244
0.105385315692
0.105095579216
0.104936424448
0.104912132351
0.105030311605
0.105289841269
0.10568821656
0.106216370196
0.106871452667
0.107649403107
0.108545721787
0.109555597949
0.110674202747
0.111895713997
0.113215498362
0.114625836181
0.11612224519
0.117695253428
0.119338698948
0.121045173061
0.122802367679
0.124611586896
0.126456105324
0.128338412841
0.130257791579
0.132215120759
0.134212066464
0.136254222635
0.138344683322
0.140492292373
0.142697124211
0.14496084335
0.147280187753
0.149648320919
0.152054521216
0.154484781775
0.156922605111
0.159350028577
0.161748663557
0.164100624746
0.166389173308
0.168598880453
0.170714998819
0.172721514767
0.174596894527
0.176305433018
0.177779449407
0.178881061837
0.179306135257
0.178398563592
0.17362643542
0.15767729761
0.102925808983
0.136274035364
0.135851913475
0.135188958941
0.134184712378
0.133007225265
0.131636917444
0.130158379895
0.128594101268
0.126983613702
0.125350302213
0.123715305935
0.12209406824
0.120498753445
0.118938784915
0.11742181294
0.115954418434
0.114542686881
0.113192594735
0.111910225146
0.110701840399
0.109573853528
0.108532743193
0.107584947639
0.106736757208
0.105994217898
0.105363077839
0.104848762201
0.104456103859
0.104188622474
0.104048983432
0.104043468175
0.104182979471
0.104459585128
0.104868437863
0.105405282607
0.106065984613
0.106846188864
0.107741227584
0.108746068064
0.10985634337
0.111065444812
0.112370130551
0.11376122374
0.11523601093
0.11678404441
0.11839931955
0.12007510174
0.121795865324
0.12356487569
0.125365631524
0.12719933937
0.129072663199
0.130970188127
0.132904939866
0.134879033717
0.136895728303
0.138959959395
0.141072658288
0.143232481498
0.145433963573
0.147667330842
0.149918612923
0.152170117396
0.154401145095
0.156588782984
0.158708577491
0.160734881312
0.162640619788
0.164396125853
0.165966478259
0.16730634765
0.16835047726
0.168996034913
0.169068942636
0.168256761271
0.165966838169
0.161039513052
0.150754368445
0.126882738099
0.076307441707
0.13371950506
0.133333756838
0.132718843015
0.13178665559
0.130691742841
0.12941288985
0.128030974343
0.12656466141
0.125051824545
0.123513779637
0.121970626297
0.120436923704
0.118924349486
0.117442060909
0.115997650741
0.114597791311
0.113248762198
0.111956787702
0.110728210482
0.109569532736
0.108487371006
0.107488368939
0.106579100865
0.105765981098
0.105055188083
0.104452630759
0.103963924135
0.103594074289
0.1033467541
0.103225112724
0.103236583763
0.103391528127
0.103682265588
0.104101286768
0.104645166879
0.105309378137
0.106089431687
0.106980622004
0.107977359682
0.109076315845
0.110269330771
0.111555408626
0.112923453394
0.114372652926
0.115891719317
0.117473606341
0.119112169359
0.120790456186
0.122509105707
0.124269125709
0.126048585943
0.127861139663
0.129699060645
0.131566230827
0.133465739777
0.135400530482
0.137373118798
0.139382956605
0.14142594787
0.143493579562
0.145572595309
0.147645139789
0.149689195704
0.151679161141
0.153586369881
0.15537932704
0.157023399225
0.158479626592
0.15970217644
0.160633667943
0.161197046453
0.161281642219
0.16071902336
0.159240393619
0.156399414663
0.151431121622
0.142983071122
0.128678862306
0.10351173654
0.0623842812841
0.131378486539
0.131024513962
0.130452370884
0.129584967978
0.12856435382
0.127368310543
0.126074145829
0.124697085998
0.123273498636
0.121822726432
0.120363909402
0.118910748453
0.117474459649
0.116063939839
0.114686720109
0.113349544765
0.112058852959
0.110821067958
0.109642732151
0.108530521744
0.107491189557
0.106531478918
0.105658037276
0.104877341203
0.104195644966
0.103618973548
0.103153083591
0.10280311909
0.102573145782
0.102467490911
0.102494667418
0.102662472511
0.1029648782
0.10339226401
0.103941287061
0.104606807087
0.105384174249
0.106268939618
0.107254370327
0.108339088769
0.109512687503
0.110776949969
0.112118790987
0.113538154578
0.115022928553
0.116564300321
0.118155299622
0.119791090102
0.121459076438
0.123161235199
0.124886914538
0.126636373653
0.128406988909
0.130200273164
0.132018583345
0.133863743895
0.135736055272
0.137632571775
0.139546120192
0.14146464651
0.143370981691
0.145243009636
0.147054063303
0.148773352399
0.150366201902
0.151793853672
0.153012542233
0.15397147231
0.154609162848
0.154847324364
0.154580909698
0.153662068143
0.151874153181
0.148889377681
0.144199116962
0.137001882529
0.126013747575
0.109255301065
0.0831878199988
0.0471055288754
0.12924965881
0.128923283666
0.1283890321
0.127579553965
0.126625427186
0.125503950151
0.124289032852
0.122992839439
0.121650391377
0.120279170019
0.118897449336
0.117518107217
0.116151928591
0.114807553917
0.113492442721
0.1122133832
0.110976930604
0.109789650701
0.108658220431
0.107589420292
0.106590068263
0.105666936586
0.104826675822
0.104075755874
0.103420448067
0.102866869339
0.102420919559
0.102087825458
0.10187209468
0.101779997182
0.10182180475
0.102000375879
0.102312686978
0.102746540842
0.103298715104
0.103963204688