/*--------------------------------*- C++ -*----------------------------------*\
| =========                 |                                                 |
| \\      /  F ield         | OpenFOAM: The Open Source CFD Toolbox           |
|  \\    /   O peration     | Version:  v1806                                 |
|   \\  /    A nd           | Web:      www.OpenFOAM.com                      |
|    \\/     M anipulation  |                                                 |
\*---------------------------------------------------------------------------*/
FoamFile
{
    version     2.0;
    format      ascii;
    class       volScalarField;
    location    "400";
    object      p;
}
// * * * * * * * * * * * * * * * * * * * * * * * * * * * * * * * * * * * * * //

dimensions      [0 2 -2 0 0 0 0];


internalField   nonuniform List<scalar> 
6400
(
0.186637362453
0.186389209449
0.186027851559
0.185593535165
0.185377504277
0.185130438933
0.184541966456
0.183303542185
0.181525396377
0.17925716433
0.176578052986
0.173578926768
0.170353575086
0.166991677625
0.163574212931
0.160170925005
0.156839407573
0.153625337405
0.150563438748
0.147678842236
0.144988593542
0.142503146585
0.140227744809
0.138163639536
0.136309130477
0.13466042971
0.133212366581
0.131958950847
0.130893816846
0.130010566305
0.129303025585
0.128765434112
0.128392574847
0.128179879691
0.12812356
0.128220762088
0.128469766509
0.128870042129
0.129421261657
0.130121023466
0.130966240589
0.131955437056
0.13308747828
0.134360792019
0.135773586722
0.137323857715
0.13900935676
0.14082754389
0.142775524996
0.144849976077
0.147047049034
0.14936226089
0.151790365187
0.154325214712
0.156959621415
0.159685230266
0.162492418015
0.165370236717
0.168306411739
0.171287409644
0.174298579271
0.177324377245
0.180348675905
0.1833551473
0.186327679883
0.189250768771
0.192109814846
0.19489131042
0.197582901934
0.200173252484
0.202651461531
0.205005668439
0.20722052642
0.20927406024
0.211135748259
0.212765395533
0.214101987846
0.215036950389
0.215448416731
0.215435394489
0.186665599593
0.186372550439
0.186108657984
0.185801108182
0.185354924869
0.185067490438
0.184461552413
0.183205675817
0.181388306355
0.179071376404
0.176343874701
0.17330152603
0.17004087155
0.166652762617
0.16321822882
0.159806317233
0.156473486807
0.153264085343
0.150211487682
0.147339566856
0.144664264087
0.142195106021
0.139936585756
0.137889365764
0.136051296905
0.134418257633
0.132984836972
0.131744875672
0.130691895657
0.129819422746
0.129121234499
0.128591533619
0.128225063065
0.12801715656
0.127963751855
0.128061532358
0.128308496594
0.128704977
0.129251897609
0.129948241276
0.130791745149
0.131779934134
0.132910498503
0.134181567694
0.13559127831
0.137137625798
0.138818388603
0.140631060508
0.142572794615
0.14464032437
0.146829879688
0.149137071055
0.151556766988
0.154082945681
0.15670855448
0.159425366204
0.162223871762
0.165093201823
0.168021116074
0.170994050308
0.173997253534
0.177015000412
0.18003089873
0.18302825747
0.185990500739
0.188901559824
0.191746214225
0.194510321071
0.197180921742
0.199746132792
0.202194643997
0.204514604136
0.206691749653
0.20870697713
0.21053400514
0.212136820212
0.213463801424
0.214438084742
0.21496685825
0.215043652107
0.187069577599
0.186710234017
0.186268486628
0.185909885488
0.185386917372
0.184731115874
0.183755226503
0.182275662
0.180296366701
0.177862720049
0.175057307217
0.171971997902
0.168699123303
0.165324689275
0.161924579722
0.158562780887
0.155291087097
0.152149775389
0.149168835649
0.146369448899
0.143765506696
0.141365045826
0.139171533225
0.137184974595
0.135402846084
0.133820862431
0.132433598643
0.131234992582
0.130218733558
0.129378561647
0.128708496974
0.128203005782
0.127857115017
0.127666309649
0.127626417364
0.127734312732
0.127989966826
0.128396450358
0.128951943605
0.129652330854
0.130496722522
0.131483685531
0.132611654798
0.133879008477
0.135283999031
0.136824694055
0.138498925516
0.140304245997
0.142237878577
0.144296655431
0.146476934156
0.14877449201
0.151184393909
0.153700842894
0.156317018147
0.159024918335
0.161815223078
0.164677195209
0.167598638029
0.170565927626
0.173564128342
0.176577201964
0.179588303805
0.182580153623
0.185535448799
0.188437281911
0.191269525307
0.194017121922
0.196666238861
0.1992042422
0.201619296594
0.203899504578
0.20603163542
0.207999366035
0.209780736944
0.211344794391
0.212649331212
0.213639670222
0.214235233888
0.214366263776
0.18775305806
0.187253181661
0.186645913934
0.185982419401
0.185143645957
0.184068547246
0.182672461565
0.18087459989
0.1786680945
0.176087331589
0.173200404507
0.170087363922
0.16682991518
0.163504276538
0.160177443076
0.156905598485
0.15373396242
0.150697503738
0.14782210946
0.145125931363
0.142620736297
0.140313162697
0.138205837948
0.136298340921
0.13458801384
0.133070636057
0.131740976655
0.130593245252
0.129621448429
0.128819665157
0.128182265334
0.127704076263
0.127380447209
0.127207021566
0.127179637398
0.127296229456
0.12756055692
0.127973454982
0.128531226075
0.129232220282
0.130075135622
0.131058682747
0.132181521501
0.133442202009
0.134839100156
0.136370371324
0.138033920474
0.13982737639
0.141748062365
0.143792949249
0.145958585355
0.148240994031
0.150635540818
0.153136770329
0.155738225505
0.158432260405
0.161209869162
0.164060549441
0.16697222589
0.16993125009
0.172922495244
0.175929550375
0.178935015892
0.181920878956
0.184868952903
0.187761323707
0.19058080582
0.19331130837
0.195938042964
0.198447661218
0.200828030288
0.203067566935
0.205154411018
0.20707518126
0.208812651297
0.210342370628
0.211631439895
0.212638773645
0.213284411445
0.213469565183
0.188503912256
0.18778858684
0.186886389526
0.18582046667
0.184547986566
0.183035055152
0.181231082813
0.179100042659
0.176647663262
0.173908284208
0.170939189471
0.167807278562
0.164580844138
0.161323616537
0.158091576522
0.154931624329
0.151881478403
0.148970288897
0.146219610685
0.143644507373
0.141254651864
0.13905535234
0.137048471223
0.135233227029
0.133606880926
0.132165317708
0.130903533815
0.129816041
0.128897191411
0.128141435346
0.127543531245
0.127098709581
0.126802663548
0.12665130138
0.126640939827
0.126770745288
0.127045891276
0.127466449258
0.128027725045
0.12872911066
0.129569788898
0.130548880347
0.131665350756
0.132917956281
0.134305202385
0.135825324467
0.137476283925
0.139255771119
0.141161201204
0.143189691303
0.145338006051
0.147602464754
0.149978805099
0.152462007369
0.155046086907
0.157723872582
0.16048679161
0.163324687986
0.166225699257
0.169176218173
0.172160957406
0.175163126866
0.178164732306
0.181146955206
0.18409063986
0.186976757946
0.189786947654
0.192503998066
0.195112034499
0.197596890165
0.199946114464
0.202148361235
0.204192873872
0.206068671644
0.207762642962
0.209256273702
0.210523868644
0.211535526592
0.212210402268
0.212446874012
0.188920326695
0.187865149147
0.186657153557
0.18520247022
0.183516580016
0.181595787178
0.179424414817
0.176995931706
0.174327294879
0.171453611866
0.168423862064
0.165292836426
0.16211555922
0.15894313501
0.155820453718
0.152785214349
0.14986784402
0.147091942553
0.144474996872
0.142029202643
0.139762298166
0.13767835979
0.135778531535
0.134061678745
0.132524962966
0.131164340263
0.129974997207
0.128951709412
0.12808914077
0.127382094116
0.126825714201
0.126415653284
0.126147920755
0.126018744573
0.126025601172
0.126169945651
0.126455578744
0.126881600423
0.127444790218
0.128144982457
0.128981789602
0.12995470739
0.13106299347
0.13230560267
0.133681157688
0.135187952585
0.136823979707
0.138586965936
0.140474402607
0.142483552169
0.144611416982
0.146854658283
0.1492094597
0.151671335897
0.154234896297
0.156893581228
0.159639396173
0.162462674072
0.165351898299
0.168293615362
0.171272471491
0.174271359137
0.177271744307
0.180254017523
0.183198088081
0.186083825036
0.188891672928
0.191603384613
0.194201983335
0.196672438155
0.19900201984
0.201179476924
0.20319473164
0.205038423833
0.206700393087
0.208166500474
0.209414858691
0.210426035826
0.211117352889
0.211401652871
0.188373089635
0.187155803711
0.185754528237
0.183999573657
0.181986772576
0.179739755585
0.177276591997
0.174615154651
0.171782593468
0.168814742588
0.165754069552
0.162645287294
0.159532080451
0.156454608472
0.153448092191
0.150542194356
0.147760960779
0.145123106864
0.142642498618
0.14032872898
0.138187727176
0.136222363625
0.134433025619
0.132818150336
0.131374707874
0.130098631961
0.128985202803
0.128029373017
0.12722604511
0.126570318893
0.126057704234
0.125684211601
0.125446119717
0.125339996104
0.125364707515
0.12552444264
0.125820383387
0.126250339657
0.126814013625
0.127511520097
0.12834296454
0.129308246068
0.130406918573
0.131638119311
0.133000553676
0.134492526632
0.136112006237
0.137856701501
0.139724133971
0.141711682501
0.143816581584
0.146035858095
0.148366196909
0.150803734991
0.153343792715
0.155980562713
0.158706784697
0.161513442701
0.164389528653
0.167321889345
0.170295255061
0.173292303328
0.176294100713
0.179280306311
0.182230016294
0.185122111952
0.187935840083
0.190652157366
0.19325303226
0.195722504326
0.198047662391
0.200217156044
0.202221148329
0.204051164633
0.205698746497
0.207152711914
0.208391725936
0.209406195624
0.210109435134
0.210438622743
0.186877683807
0.185625733331
0.184135805793
0.182190286455
0.179958957735
0.177487763631
0.174824371378
0.172006322571
0.169070340619
0.166053763969
0.162994625046
0.159930053603
0.156894924823
0.153920723264
0.151034878469
0.14826046775
0.145616205348
0.14311662997
0.140772424983
0.1385908213
0.136576045142
0.134729781731
0.133051632784
0.131539552886
0.130190255991
0.128999587317
0.127962859344
0.127075145322
0.126331538425
0.12572739679
0.125258561945
0.124921413061
0.124712601784
0.124629218249
0.124671194751
0.124843908605
0.125148031704
0.125580912572
0.126143535289
0.12683676987
0.127661340738
0.128617610211
0.129705441778
0.130924135691
0.1322724354
0.133748593797
0.135350481469
0.137075714585
0.138921777405
0.140886113733
0.142966163267
0.145159322413
0.147462816639
0.149873480881
0.152387456799
0.154999828835
0.157704235193
0.160492483821
0.163354271178
0.166276903435
0.169245418121
0.172242379762
0.175248713332
0.178243426324
0.181205017599
0.184111670708
0.186941393634
0.189674800868
0.192292919733
0.194778700892
0.197119242284
0.199302774128
0.201319263178
0.203160554091
0.204818619788
0.206283940003
0.207533021708
0.208564331916
0.209283895948
0.2096577977
0.184640360226
0.183401972055
0.181884034584
0.179839748242
0.177489607516
0.174891520822
0.172116573122
0.169216905792
0.166237319507
0.163217081969
0.160191614255
0.157192841673
0.154249302006
0.15138604884
0.148624581507
0.145982828462
0.143475214794
0.141112816996
0.138903598257
0.136852708415
0.134962827379
0.133234530547
0.131666657148
0.130256668717
0.12900099054
0.12789533225
0.126934984019
0.126115082222
0.125430852588
0.124877849533
0.124452173403
0.124150527327
0.123970009369
0.123908390673
0.123966441619
0.124149913506
0.12445956293
0.124893054268
0.125452432842
0.126139392386
0.126955330704
0.127901105767
0.128976890358
0.13018211491
0.131515500004
0.132975164579
0.134558787255
0.136263793545
0.138087538878
0.140027456345
0.142081139989
0.144246337095
0.146520832385
0.148902217126
0.151387552868
0.153972946575
0.156653106786
0.159420826793
0.162266751103
0.165178759466
0.168142541245
0.171140569922
0.174154068925
0.177161481958
0.18014100127
0.183070701201
0.185927163019
0.188691367199
0.191343585351
0.193865336391
0.196244380538
0.198468177042
0.200526041512
0.202409949876
0.204111080907
0.205619773634
0.20690815901
0.207978987146
0.20872779358
0.209151218469
0.181830537816
0.180632828934
0.179127252598
0.177054064825
0.174665412383
0.172022041123
0.16921176214
0.166296275695
0.16332642894
0.160343285198
0.157380914411
0.154467939721
0.151628628368
0.148883516428
0.146249779082
0.143741451279
0.141369598073
0.139142492375
0.137065828595
0.135142976375
0.133375265057
0.131762283621
0.130302182046
0.128991965514
0.127827779229
0.126805184006
0.125919418749
0.125165644191
0.124539173007
0.124035700196
0.123651513114
0.123383565267
0.123229400817
0.123187560079
0.123259551167
0.123451108769
0.123763423054
0.124194891017
0.1247486095
0.125427171797
0.126232711807
0.127166618439
0.128229371916
0.12942049333
0.130738608256
0.132181605378
0.133746860124
0.1354314908
0.137232612072
0.13914754808
0.14117397223
0.143309938585
0.145553785499
0.147903894875
0.150358331594
0.152914325264
0.155567841388
0.158312744081
0.161140968629
0.164040917776
0.166999514143
0.169998962028
0.173021491415
0.176045095095
0.179047894566
0.182008815762
0.184902471046
0.18771123442
0.190415009804
0.192993300502
0.195436718626
0.197731764017
0.199865705377
0.201830642939
0.203615965012
0.205208963243
0.206575757999
0.207717101327
0.208516408124
0.209001598536
0.178593066339
0.177457744872
0.175996001879
0.173946966668
0.171581203172
0.168956541497
0.166171894794
0.163294174737
0.160378266087
0.157466568138
0.154592527997
0.15178279645
0.149058902673
0.14643833074
0.143935195707
0.141560659275
0.139323214952
0.137228925546
0.135281656698
0.133483321575
0.131834135068
0.13033286908
0.128977100641
0.127763450232
0.126687815478
0.125745608524
0.12493199085
0.124242101325
0.123671276941
0.123215273666
0.122870477402
0.122633971855
0.122503640919
0.122478899091
0.122562231821
0.122758779162
0.123070258626
0.123496444775
0.124041551485
0.124709160637
0.125502214578
0.126422673374
0.127471321711
0.128647724735
0.129950329923
0.131376687083
0.132923744452
0.134588182111
0.136366745971
0.138256533233
0.140255200565
0.142361040475
0.144572917528
0.146890003612
0.149311442084
0.151835601829
0.154459953978
0.157179315519
0.159987494921
0.16287301002
0.165825009685
0.16882494266
0.171856963021
0.174898770473
0.177928259291
0.180926470526
0.183865124655
0.18673000467
0.189501694353
0.192156243101
0.194691841315
0.197093729009
0.199343254276
0.201432549029
0.203348325253
0.20507236245
0.206566266273
0.207821460493
0.208707351001
0.209277806632
0.175067348621
0.174008204024
0.172612412848
0.170626128761
0.168328111344
0.165769816857
0.163056934533
0.160258179981
0.157430752499
0.154617788567
0.151852436139
0.14916019478
0.146560884701
0.144069971701
0.141699443122
0.139458377925
0.137353345528
0.135388719175
0.133566950485
0.131888823673
0.130353694688
0.128959712611
0.127704022296
0.126582952092
0.125592199554
0.124727038761
0.123982530148
0.123353739681
0.122835961079
0.122424928564
0.12211705767
0.121909420641
0.121800030242
0.121789331909
0.121881799872
0.122080215061
0.122386398108
0.122803587432
0.123336752456
0.123990527533
0.124768752283
0.125674012393
0.12670739732
0.127868465189
0.129155393517
0.130565276336
0.132094504016
0.133739178794
0.135495542271
0.137360334853
0.139331088911
0.141406244108
0.143585150383
0.145867701786
0.148254222323
0.150744049426
0.153336605346
0.156027128418
0.158812344207
0.161679934506
0.164622702344
0.167620524433
0.170660135033
0.17371918423
0.176774678603
0.179811676768
0.182798242308
0.185727365641
0.188582966183
0.191333787324
0.193987733812
0.196528107329
0.19892886031
0.201183132962
0.203275973485
0.205185333353
0.206869651299
0.208300702509
0.209330336604
0.210024002834
0.171379111705
0.170402110284
0.169085388332
0.167187777771
0.164988193145
0.162529755385
0.159921635792
0.157231788825
0.154518334101
0.151824507605
0.149183203224
0.146619200864
0.144151239555
0.14179344929
0.139556348244
0.1374475306
0.13547216696
0.133633394017
0.1319326341
0.130369863644
0.128943840364
0.127652294435
0.126492088723
0.12545935803
0.124549649778
0.123758098129
0.123079623787
0.12250915476
0.122041863044
0.121673398146
0.121400072962
0.12121883871
0.121127706147
0.121127776889
0.121224831239
0.121420958754
0.121718284452
0.122122550512
0.122639986939
0.123276549062
0.12403714751
0.124925076275
0.12594173219
0.127086607193
0.128357504672
0.129750936698
0.131262605685
0.132887894858
0.134622414197
0.13646241361
0.138405196454
0.140449220838
0.142594295298
0.144840833319
0.147190581664
0.149643313288
0.152201262516
0.154858948297
0.157617599132
0.160462571543
0.163391570038
0.166382041762
0.169423166984
0.172493481109
0.175568553622
0.178641952616
0.181679306642
0.184678848958
0.18763269998
0.1905026496
0.193289049342
0.195980289198
0.198562123586
0.201024356944
0.203350546475
0.205513521661
0.207464015535
0.209145911108
0.210390405742
0.211251828119
0.16763213282
0.16673804255
0.165506874363
0.163713783482
0.161631878538
0.15929516138
0.156813830937
0.154253220502
0.151671283622
0.149110740068
0.146604104367
0.144175599287
0.141843222415
0.139620190991
0.137516005208
0.135537220466
0.133688030844
0.131970723559
0.130386036663
0.128933435999
0.127611326619
0.126417212392
0.125347814543
0.124399162335
0.123566686449
0.122845363302
0.122229917958
0.121715065892
0.121295772003
0.120967501991
0.120726387016
0.120569205022
0.120493903116
0.120501803823
0.120599044925
0.120788344221
0.121072722929
0.121459629902
0.121957006696
0.122572437948
0.123312122789
0.124180155572
0.125178228993
0.126305692266
0.127559851946
0.128936501265
0.130430542197
0.132036503658
0.133749264371
0.135564443014
0.1374790319
0.139491310615
0.141601616519
0.14381043601
0.146121504246
0.148533976423
0.151054294352
0.153674549862
0.156401945172
0.159218006885
0.162125327858
0.165099102969
0.168130083446
0.171203491752
0.174290956321
0.177398418084
0.18049999434
0.183570193952
0.186605574205
0.189587447038
0.192510810397
0.195369393853
0.19815589982
0.200862312947
0.20347408223
0.205961609738
0.208266839389
0.210299291586
0.211861202006
0.212950838216
0.163908172045
0.163094624413
0.161951024017
0.16027082854
0.158317153019
0.156114955365
0.153773692402
0.151354805368
0.148915272962
0.146496748363
0.144131158312
0.141842166038
0.139647179046
0.137558748378
0.135585659761
0.133733761668
0.132006609087
0.130405965459
0.128932184409
0.127584485061
0.126361138727
0.12525959228
0.124276546087
0.123407995178
0.122649268143
0.121995140528
0.12144006177
0.120978450354
0.120604981874
0.12031483716
0.120103854567
0.119968545875
0.11990669791
0.119919591733
0.120013326426
0.120191392619
0.12045799411
0.120822444912
0.121294769171
0.12188453972
0.12259948803
0.123444581681
0.124421753611
0.125530104309
0.12676630191
0.128125264404
0.129601025462
0.131187116674
0.132877633939
0.134667397018
0.136553086465
0.138532487173
0.140606769247
0.142775707714
0.145046039553
0.147414781492
0.149893940992
0.152471523586
0.155160675854
0.157938746385
0.160811261689
0.163758638023
0.166765538252
0.169839885294
0.172944490746
0.176068818198
0.179201252336
0.182324289089
0.185430104952
0.188509708835
0.191560703262
0.194583330438
0.197578715666
0.200545925089
0.203477864205
0.206348992084
0.209099199986
0.211612681822
0.213663120006
0.215092554667
0.160269831771
0.159532614344
0.158475597355
0.156911289289
0.15509003003
0.153028345892
0.150833707302
0.148562865055
0.146271253531
0.143998999815
0.141777215869
0.139628917947
0.137570965461
0.135615378516
0.133770432459
0.132041516613
0.130431815797
0.128942838357
0.127574806393
0.126326916422
0.125197490499
0.124184054764
0.123283379312
0.1224914768
0.121803571794
0.12121416193
0.120717291191
0.120306965435
0.119977504817
0.119723748676
0.119541153935
0.119425847335
0.119375298019
0.119390497415
0.119477231335
0.119639651468
0.119883275051
0.120219639382
0.120661326229
0.121220359499
0.121906287889
0.122724985176
0.12367848956
0.12476551336
0.125981940524
0.127321600299
0.128777668237
0.13034249601
0.132009436494
0.133772298981
0.135627623201
0.137572233849
0.1396087785
0.141735231324
0.143962379083
0.146283651964
0.148716612509
0.151244491701
0.153883647474
0.156615077494
0.159435154048
0.162357005246
0.165338784202
0.168384397483
0.171475409385
0.17459691111
0.177736695753
0.180882959223
0.184029629846
0.187174302963
0.190320245439
0.193475524399
0.196651446735
0.199857918865
0.203101374022
0.206366932142
0.209602508978
0.212682339669
0.215359798643
0.217338082677
0.156763799588
0.156097608766
0.155124175944
0.153674935523
0.151985747219
0.150065606245
0.148019137702
0.145897964998
0.143755603477
0.141630295291
0.139552132927
0.137543369275
0.135620303977
0.133794497741
0.1320738543
0.130463490038
0.128966431271
0.127584147567
0.126316932396
0.125164139433
0.124124287307
0.123195079684
0.122373405933
0.121655316864
0.121035916426
0.12050931323
0.120068949669
0.119708273537
0.119421255743
0.11920244947
0.119046899075
0.118950210944
0.1189093308
0.118924629539
0.119001122029
0.119143403273
0.11935853434
0.119660718507
0.120065669495
0.120588453297
0.121240763603
0.122029339624
0.122956059894
0.12401905679
0.12521332008
0.126531238975
0.127965289463
0.129506392525
0.131147357871
0.132880751226
0.134703384119
0.136610519971
0.138606989955
0.14068792999
0.142868237252
0.145136906968
0.147514375049
0.149985767927
0.152556484168
0.155244587621
0.158010602784
0.160872119531
0.163808088432
0.166808317212
0.169858022984
0.172943394144
0.176053311552
0.179179395373
0.182318420951
0.185472846859
0.188651626986
0.191870385262
0.195150485871
0.198513284163
0.201982182311
0.2055511865
0.209168601825
0.212662800593
0.215735286587
0.218151167607
0.153423425461
0.152822485828
0.151928393455
0.150590801469
0.149030216327
0.147249131105
0.14534875026
0.143375401671
0.141380460492
0.139400023806
0.137463004976
0.135590782372
0.133799067309
0.132098999777
0.130498208938
0.129001677254
0.127612437095
0.126332088586
0.125161153726
0.124099280611
0.123145298538
0.122297154402
0.12155184976
0.120905441608
0.120352909228
0.119887890754
0.119502955045
0.119190715215
0.118944822018
0.11875970941
0.118630024844
0.118550728788
0.118518133641
0.118531711068
0.118595000657
0.118712688546
0.118893715575
0.119155382049
0.11951717823
0.119997993031
0.120612029657
0.12136673925
0.122263359961
0.12329915534
0.124468269794
0.125761075814
0.127169757698
0.128683532339
0.130295064086
0.131995447522
0.133782202631
0.135648457885
0.137601300721
0.139632229293
0.141758259017
0.143968773467
0.146273647577
0.148692686393
0.151194540517
0.153805395616
0.156507233652
0.159296985384
0.162161002823
0.165086476674
0.168059546935
0.171067015409
0.174098277603
0.177146441607
0.180209962136
0.183293817104
0.186410000527
0.189578174003
0.192824851928
0.196175682693
0.19966747691
0.203281466165
0.206919127276
0.210307216494
0.213809774761
0.218090388374
0.15027136166
0.149729768346
0.14891005674
0.147678999497
0.146241490833
0.144594570334
0.142835655436
0.141005806761
0.139154156197
0.137314486789
0.135514426663
0.133774392548
0.132109482623
0.130530441315
0.129044691991
0.127657183929
0.126371076975
0.125188229746
0.124109505308
0.123134933014
0.122263719926
0.121494092765
0.12082312096
0.120246778789
0.119759934574
0.119355745981
0.119025482457
0.118760213411
0.118553373107
0.118400031617
0.118294934549
0.118232319745
0.118207661502
0.118219133058
0.118267282795
0.118356374372
0.118498041127
0.118713004022
0.119025163298
0.119458365635
0.120029711612
0.120747025906
0.121610153406
0.122615014074
0.123755339941
0.12501871122
0.126397733446
0.127879706921
0.129457485825
0.131120523378
0.132867010135
0.13468732054
0.136589540398
0.138564782733
0.140621465597
0.142776928519
0.14500962505
0.147346519333
0.149776766305
0.152304215262
0.154919891333
0.157615592073
0.160378796509
0.163195389887
0.166050707079
0.168930868293
0.171824450277
0.174723845449
0.177626577116
0.180536388567
0.183463125185
0.186423313015
0.189436776013
0.192512008073
0.19567981351
0.198838807988
0.201808787259
0.204618429747
0.208135075654
0.214724503815
0.147321637845
0.146833648511
0.146083038207
0.144952377151
0.143631145331
0.142111932404
0.140488158656
0.13879578551
0.137081687963
0.135377245562
0.13370874884
0.132095596501
0.130552262941
0.129089118615
0.127713430863
0.12643018173
0.12524274011
0.124153314993
0.123163192402
0.122272829498
0.121481859733
0.120788907791
0.12019117828
0.119684280142
0.119262559008
0.118918811941
0.118643112133
0.118423552461
0.11825345636
0.118130235567
0.118049384667
0.11800326411
0.117985745482
0.117994175995
0.118024861922
0.118081247471
0.118179082513
0.118341839582
0.118598156305
0.118978595534
0.119503363402
0.120180096811
0.121006363487
0.121975988864
0.123083334606
0.124312377525
0.125656808248
0.127101990046
0.1286407073
0.130260401299
0.131958958281
0.133726387778
0.135564242948
0.137484342558
0.139472131655
0.141548007877
0.143708386117
0.145960836321
0.148302355088
0.150730959666
0.153238895762
0.155815430749
0.158446625814
0.16111650388
0.163808370204
0.166506124521
0.169195651741
0.17186599914
0.174510275138
0.177126167116
0.179714764372
0.182280831156
0.184822491158
0.187306849817
0.189741252478
0.191720809823
0.193159437233
0.193354515766
0.192363387633
0.195420245818
0.144581693659
0.144141825963
0.143454948967
0.142417986945
0.141205519711
0.139806603814
0.138310568404
0.1367485396
0.135165187163
0.133589464462
0.132046319796
0.130554108083
0.129126685524
0.12777407176
0.126503413292
0.125319759651
0.124226723937
0.123226919434
0.122322117131
0.121513239365
0.120800379864
0.120182660218
0.119657341426
0.119218900924
0.118860304626
0.118575344134
0.118355634138
0.118180930139
0.118042627458
0.117943757876
0.117883324406
0.117851335824
0.117840801315
0.117847918613
0.117863743011
0.117887433257
0.117938852658
0.118046143707
0.118242229018
0.118566432379
0.119041913705
0.119675354747
0.120461567871
0.121391555525
0.122461513552
0.123651272069
0.12495545491
0.126357413818
0.127848509927
0.129416389622
0.131053299115
0.132764902373
0.134538532526
0.136384194474
0.138301801847
0.140297663976
0.14237285097
0.144530129615
0.146767443178
0.149079805569
0.151457802086
0.153888180793
0.156354430167
0.158837729651
0.161318131129
0.163775710949
0.166191607333
0.16854874357
0.170832082425
0.173028180903
0.175122773822
0.177100479166
0.178925672221
0.180545198168
0.182030292168
0.182052912769
0.179367797387
0.172168536567
0.15394727229
0.0989423227565
0.142053806103
0.141656954587
0.141028529756
0.140078340438
0.138966803958
0.137680257316
0.13630393301
0.134864447452
0.133404363
0.131950237313
0.13052571122
0.12914809571
0.127830648552
0.126583063335
0.125412392966
0.124323760667
0.123321010547
0.122407162696
0.121584535436
0.120854598709
0.120217875428
0.119673707622
0.1192194208
0.118850015726
0.11855842376
0.118334767768
0.118176555577
0.118042309145
0.117925495035
0.117842462002
0.117801951286
0.117791649829
0.117795887989
0.117802200209
0.117793773739
0.117776001149
0.117780248868
0.117832451284
0.117964066343
0.118229331905
0.118654438335
0.119242439735
0.119985514843
0.120871686799
0.121899407956
0.123043866307
0.124298583171
0.125647965067
0.127076692741
0.128586306264
0.130161399782
0.131802602443
0.13350845944
0.135279604594
0.13711704699
0.139024322255
0.141002933668
0.143052926901
0.145170582642
0.147348156231
0.149573452688
0.151830090157
0.154098143499
0.15635501216
0.158576382457
0.160737070312
0.162811576315
0.164774149547
0.166598158978
0.168254417715
0.16970748386
0.170912853036
0.171786801152
0.172252842274
0.172174549211
0.169588474627
0.162626833835
0.149415778203
0.123492144063
0.0737497189474
0.139736487188
0.139377913823
0.138802826528
0.137932467206
0.136913966188
0.135731643381
0.134466695912
0.133141591858
0.131796914474
0.130456896813
0.129143936826
0.127874320743
0.126660736413
0.125512576322
0.124436821659
0.123438660473
0.122522106045
0.12169052183
0.120946824896
0.120293187279
0.119730515637
0.119258211002
0.118875618364
0.118584093819
0.118373887321
0.118191553903
0.118066663678
0.117976782158
0.11789677805
0.117838768773
0.117808536029
0.117794598896
0.117783921799
0.117767967298
0.117748852993
0.117734674514
0.117723667875
0.117724971992
0.11777826561
0.117977751853
0.118350831738
0.118891536722
0.119587648489
0.120424354636
0.121400585339
0.122490906761
0.123679623025
0.124967790207
0.126333861176
0.127774418707
0.12928329848
0.13085398907
0.132483556963
0.134171894457
0.135919945279
0.137729353856
0.139600204865
0.141530019553
0.143512407957
0.145536450004
0.147586503092
0.149642469796
0.151680400647
0.153673233269
0.155591482585
0.157403669668
0.159076273046
0.160572957304
0.161852793975
0.162867028883
0.163553870276
0.16383310584
0.16358496609
0.162743699646
0.160639916235
0.155456341681
0.145214505293
0.129070515211
0.103303624745
0.0623811486166
0.13762540497
0.137300773879
0.136774139235
0.135976791124
0.135043535257
0.133957270265
0.132795270899
0.131576234329
0.130338911585
0.129105311258
0.1278966741
0.126728293665
0.125612320222
0.124557864818
0.12357185738
0.122659542292
0.121825015808
0.121071841694
0.120403483155
0.119822916724
0.119331561564
0.11893016049
0.11862381855
0.118411072236
0.118254251708
0.118134578291
0.118036604139
0.117957416524
0.117891553494
0.117843884048
0.117813179025
0.117792697348
0.117775137418
0.117755801584
0.117734650496
0.117712853392
0.117694372922
0.117678344846
0.117681896712
0.117822090143
0.118137389274
0.11862566678
0.119268303577
0.120047198184
0.120952490274
0.121981032539
0.123104287699
0.12432275162
0.125623529077
0.126995356397
0.128430021861
0.1299214878
0.131466426194
0.133063788781
0.1347135175
0.136415398695
0.138167337839
0.139964012593
0.141795781479
0.143648112691
0.145501502801
0.147331786298
0.149110680711
0.150806359113
0.152383835281
0.15380493212
0.155027581722
0.156004142538
0.156678298775
0.156979795694
0.156815808209
0.156056947143
0.154506206607
0.151875106718
0.147554117436
0.140244337712
0.128483721096
0.11081989221
0.0843993928588
0.048066924005
0.135714313658
0.135419642801
0.134936813273
0.134205858136
0.133350258064
0.132351985321
0.13128454461
0.130163241142
0.129025149921
0.127890174449
0.126778497169
0.125704459148
0.124679704853
0.123713072882
0.122811455659
0.121980155247
0.121223283023
0.120544410089
0.119947275581
0.11943552344
0.119012687776
0.118685714449
0.118465588788
0.118307180397
0.118190319173
0.118096709379
0.118016791031
0.117948768231
0.11788745235
0.117841259051
0.117808515256
0.117783926658
0.117762825839
0.117742485541
0.117722216964
0.117702260687
0.117683661445
0.117664454409
0.117653452164