/*--------------------------------*- C++ -*----------------------------------*\
| =========                 |                                                 |
| \\      /  F ield         | OpenFOAM: The Open Source CFD Toolbox           |
|  \\    /   O peration     | Version:  v1806                                 |
|   \\  /    A nd           | Web:      www.OpenFOAM.com                      |
|    \\/     M anipulation  |                                                 |
\*---------------------------------------------------------------------------*/
FoamFile
{
    version     2.0;
    format      ascii;
    class       volScalarField;
    location    "400";
    object      pa;
}
// * * * * * * * * * * * * * * * * * * * * * * * * * * * * * * * * * * * * * //

dimensions      [0 2 -2 0 0 0 0];


internalField   nonuniform List<scalar> 
6400
(
-0.199574271731
-0.205854736563
-0.206731235999
-0.214705638727
-0.19505225043
-0.168291649951
-0.137502161818
-0.0842588640177
-0.019853611346
0.0431024712174
0.0992312359366
0.147199650116
0.186545646364
0.217023122661
0.238830490424
0.252637144418
0.259381978224
0.260079063536
0.255714133718
0.247202710258
0.235368462428
0.220932313403
0.204509324346
0.186615575639
0.167677868677
0.148046573563
0.128006450455
0.107788823226
0.0875812129146
0.0675381930783
0.0477899454466
0.0284536357957
0.00965067940918
-0.00845117098646
-0.0255497007933
-0.0412154247702
-0.0558046272964
-0.074078329277
-0.104472643402
-0.147273686847
-0.199515317544
-0.257404388091
-0.31854277884
-0.381860624593
-0.446846659868
-0.513052397433
-0.579975695356
-0.647087145782
-0.713845998343
-0.7796913183
-0.844028512351
-0.90622465878
-0.965610724316
-1.02148964507
-1.07314880999
-1.11987856665
-1.16099681403
-1.19588033241
-1.2240010541
-1.24496579671
-1.25855495656
-1.26475695136
-1.26379229506
-1.25612483963
-1.2424552104
-1.22369768733
-1.20093741805
-1.17537587198
-1.14825753033
-1.12080423789
-1.09410442319
-1.06908389151
-1.04623023589
-1.02584222803
-1.00692077095
-0.989552964122
-0.969671028748
-0.954247684992
-0.931158834699
-0.952431199745
-0.234761044801
-0.259048885488
-0.258256483167
-0.243658775699
-0.204673016004
-0.115305756791
0.0317025819201
0.227573913925
0.468598478034
0.744628175755
1.04523690746
1.36214795421
1.68829602861
2.0173365344
2.34388185742
2.66366779436
2.97346200413
3.27087255091
3.55418970237
3.82226076456
4.07438501868
4.31021440717
4.5296702248
4.73287283517
4.92008690685
5.09167595074
5.24806598665
5.38971601594
5.51709434127
5.63066090967
5.73085284039
5.81807477677
5.89268466402
5.95497733439
6.0052106641
6.04422323572
6.07624690781
6.11399123615
6.16158517914
6.20760848164
6.24337837153
6.26668607989
6.27755437992
6.27572385813
6.26049100831
6.23101660646
6.18645254526
6.12594400557
6.04862102916
5.95362053825
5.84012222669
5.70739444356
5.55484049985
5.38205450854
5.18887941003
4.97547382553
4.74237599418
4.4905673808
4.22152069718
3.93723125253
3.64021571681
3.3334771312
3.02042584204
2.70476116638
2.39031496583
2.08087057546
1.77996967206
1.49072279906
1.21564464451
0.956511093395
0.71429020578
0.489041878478
0.280090482329
0.0857260874897
-0.0955067210791
-0.26697920351
-0.425421939783
-0.577372821039
-0.675903980882
-0.798413167513
-0.283632729207
-0.283731480823
-0.269722641699
-0.234579759118
-0.194877521603
-0.141173406937
-0.0595041037086
0.0498098875022
0.180894401342
0.325311718127
0.475033186463
0.623972955866
0.767545424014
0.902173604098
1.02524504931
1.13510557492
1.2309088106
1.31241340206
1.37981348712
1.43361414227
1.4745330121
1.50341992844
1.52119278922
1.52879011272
1.52713685869
1.51712049816
1.49957444597
1.47526724562
1.44489671595
1.40908750563
1.36839232389
1.32329391416
1.27420993388
1.22146523721
1.1650961296
1.1037991611
1.0323506726
0.945188706443
0.853761647379
0.765299592874
0.681056726713
0.599796823544
0.521144625699
0.445597673817
0.373877022284
0.306706091615
0.244805895367
0.188881597617
0.139573766541
0.0974039207122
0.0627273285595
0.0356906944407
0.0161932587066
0.00385193711866
-0.00202448751211
-0.00244875105102
0.00125065032322
0.00745780312248
0.0143263271462
0.0198651166414
0.0220531104623
0.0189751757505
0.0089698200387
-0.00922751508777
-0.0363608635251
-0.0725672218603
-0.117337602352
-0.169536151616
-0.227466886327
-0.289009379223
-0.351748169148
-0.41327445697
-0.471212068143
-0.524190192333
-0.5705209919
-0.612821145421
-0.644562684321
-0.680506119489
-0.642468945085
-0.731059967592
-0.409831336308
-0.302830604871
-0.303159876895
-0.300266022271
-0.231065388076
-0.138620487659
-0.0324907577832
0.0934371423147
0.236474393467
0.390147826595
0.549590063208
0.711629081854
0.873776353407
1.03393062445
1.19045850156
1.34221606552
1.48846145719
1.62874360871
1.7628175017
1.89058555721
2.01205432961
2.12729967261
2.23644006372
2.33961726187
2.43698308337
2.52869029509
2.61488614606
2.69570794536
2.77127996133
2.84171127975
2.90709446716
2.96750009962
3.02297754739
3.07354397528
3.11938151784
3.16132167824
3.20217114225
3.23582670627
3.25618077207
3.26614017826
3.26755559849
3.25936069841
3.24019532034
3.20942484644
3.16679745749
3.11212876655
3.04528872001
2.96628008781
2.87528947237
2.7727107351
2.65916106466
2.53549339479
2.40279940478
2.26239836451
2.11580770661
1.9646944346
1.81080580581
1.65588260946
1.50155917893
1.34926067658
1.20010896492
1.05485244175
0.913832431177
0.776996565193
0.643962339253
0.514126155211
0.386808329967
0.26141261687
0.137597112007
0.0154066966374
-0.104549927412
-0.221122570789
-0.33221640088
-0.435665439656
-0.526866385307
-0.605394802227
-0.65599567347
-0.698234969799
-0.611367727403
-0.72501742118
-0.582530431948
-0.229712989435
-0.302322186746
-0.293555200145
-0.151005446963
-0.0149872841741
0.0996417335339
0.215704150064
0.337012748709
0.459906614116
0.582715664192
0.704857764835
0.825344391305
0.942848949652
1.05609083949
1.16398291412
1.2656345986
1.36033423551
1.44753780487
1.52685810929
1.59804960831
1.66099008325
1.71566116033
1.76212946658
1.80052899299
1.83104472403
1.85389757944
1.86933058888
1.87759640988
1.87894648964
1.87362030888
1.86183963873
1.84379281554
1.81964082148
1.78937258876
1.75274195794
1.70914295621
1.66497392542
1.62077183924
1.57727523857
1.53556811576
1.49574362913
1.45746322374
1.42059955003
1.38518766281
1.35119278837
1.31842350296
1.28654406498
1.25509217936
1.22348512961
1.19103149584
1.15695823066
1.12045328621
1.08071938171
1.03703565945
0.988821371906
0.935695699677
0.877524407912
0.814445267666
0.746863737714
0.675415285666
0.600894792418
0.524161177045
0.44603072587
0.367177599696
0.288059153282
0.20888330376
0.129619207569
0.0500687449001
-0.0300531762952
-0.110922386816
-0.192604843413
-0.274431364837
-0.355948550408
-0.433457793618
-0.508562393536
-0.561981310678
-0.622985594805
-0.518197299322
-0.704393885045
-0.704406791409
0.0162271166757
-0.199870421136
-0.170746923799
0.0182180495405
0.151223370555
0.242709611935
0.332051241291
0.42515321072
0.519822924719
0.6163210829
0.715232044196
0.816048558517
0.917628889979
1.01874586994
1.1182755185
1.21523172128
1.30878129485
1.39825481037
1.48314538547
1.56309668056
1.6378848884
1.70739848681
1.77161782927
1.83059571915
1.88443961502
1.93329565535
1.97733472431
2.01674055222
2.05169978766
2.08239449778
2.10899535714
2.13166151372
2.15053757617
2.16579799919
2.17754393352
2.18488036164
2.18550369637
2.17857319813
2.16398382264
2.14202120395
2.11280094876
2.07624100986
2.03236674854
1.98142907416
1.92384128703
1.86011802164
1.7908595483
1.71674153514
1.6384880057
1.55683276466
1.47247959297
1.38606621701
1.29813546138
1.20911661964
1.11932121183
1.02895546003
0.938150352853
0.847006170455
0.75564535481
0.66426359205
0.573167860873
0.482790363143
0.393672155929
0.306416409732
0.221619130636
0.139794431665
0.0613037767345
-0.0136711459731
-0.0851598921692
-0.153292037615
-0.218424710807
-0.280493484559
-0.340361626598
-0.395578441593
-0.451493869292
-0.487346244469
-0.547717786771
-0.403581106772
-0.666786869804
-0.852151615154
0.38713047916
-0.0323362486579
0.0155875533389
0.208099976766
0.302350686948
0.356254569371
0.41462954313
0.479901737372
0.549707780218
0.624581800547
0.704743481475
0.789199980269
0.876436438097
0.964915508151
1.05321748826
1.14006804445
1.22435639668
1.30514671769
1.38167683325
1.4533468814
1.5197029495
1.58041856569
1.63527567003
1.68414596536
1.72697324765
1.76375698897
1.79453729287
1.81938121034
1.83837079613
1.85159206282
1.85912702085
1.86104165907
1.85738347754
1.84816385987
1.83358141817
1.8151108078
1.79373120217
1.76969267122
1.74326398978
1.71480405857
1.68452447465
1.65238703765
1.61822027802
1.58183064826
1.54301577542
1.50154850262
1.45718553046
1.40969521081
1.3588855913
1.30462665471
1.24686679892
1.18564321129
1.1210836302
1.05339858049
0.982864632786
0.909802091443
0.834551773689
0.757456944781
0.678855780696
0.599087440133
0.518511298134
0.437533087842
0.356629621308
0.276360285794
0.197357739945
0.120298455041
0.0458466705287
-0.0253841592924
-0.0929112068728
-0.156318327044
-0.215499929917
-0.269979974043
-0.320669698236
-0.364838682099
-0.40998442655
-0.431941047098
-0.4911457306
-0.295496464215
-0.634315016096
-1.0054154757
0.873691862369
0.162586256604
0.222144823153
0.378036720937
0.41658501214
0.434550579289
0.468485869882
0.514359373908
0.568913767295
0.631953262051
0.702694214678
0.77947482877
0.860439161262
0.943852615962
1.02815623654
1.1119718806
1.19410882459
1.27356618455
1.34952660937
1.42134370761
1.48852609566
1.55071981422
1.60768993846
1.65930222447
1.70550529655
1.7463137177
1.78179210249
1.81204043545
1.83718106062
1.8573471892
1.87267536144
1.88329855906
1.88935555479
1.89097188236
1.88823167742
1.88053058712
1.86750965595
1.84911749679
1.82539217452
1.79647852418
1.76258234823
1.72391516621
1.6807168125
1.63329667723
1.58202851935
1.52731213693
1.46953746765
1.409061676
1.34619488536
1.2811922122
1.21425442029
1.14553814296
1.07517407855
1.00328899665
0.930026999489
0.855565356506
0.780121896223
0.703952708849
0.627342806162
0.550593435683
0.474014034516
0.3979207874
0.322647607079
0.248560784795
0.176074250059
0.105657559373
0.037814726092
-0.0269248138033
-0.0880862108022
-0.145183303045
-0.198044415666
-0.246065765544
-0.290318743344
-0.327682856961
-0.367456205883
-0.381355967542
-0.446464409336
-0.1993938183
-0.614044770616
-1.1621434791
1.46027652141
0.349417005636
0.424988151094
0.518851215175
0.503372319647
0.495479575811
0.513583794463
0.547681399815
0.593755399425
0.650517048144
0.71614180572
0.788430412923
0.865313203151
0.944960746942
1.02576504214
1.1063214132
1.18542048154
1.2620407027
1.33533776259
1.40463134418
1.46939048651
1.5292176564
1.58383205524
1.63305267819
1.67678164684
1.71498786432
1.7476911935
1.77494719983
1.7968331398
1.81343519375
1.82483907335
1.83112172908
1.83235516435
1.82861432315
1.8200841719
1.80713503371
1.78994742343
1.76862231222
1.74324877966
1.71392309863
1.68074050068
1.64377605294
1.60309433818
1.55878019256
1.51095770221
1.45979038324
1.40547486488
1.34823531634
1.28831646636
1.22597341737
1.1614598493
1.09501832886
1.02687542945
0.95724322982
0.886327025393
0.81433751242
0.741504587628
0.66808801773
0.594383356843
0.520718207463
0.447446332403
0.374934445289
0.30355993235
0.233707945581
0.165780953691
0.10021193437
0.0374512299009
-0.0220216257054
-0.0777796674643
-0.129352318164
-0.176654976731
-0.219157092787
-0.258262662585
-0.290662379307
-0.327516038854
-0.336884725018
-0.413080776011
-0.116747489213
-0.603979014945
-1.30377222495
2.13365202197
0.50376232439
0.616813143038
0.634897216748
0.576771842371
0.55296022583
0.561254884289
0.588406100966
0.629897417321
0.683286827469
0.745910102871
0.815226709882
0.889077818508
0.965632076031
1.04331835615
1.12078492403
1.19687588644
1.2706158454
1.34119595079
1.40796090923
1.47039611751
1.5281140533
1.58083987105
1.62839691829
1.67069216328
1.70770143392
1.73945426809
1.76601858926
1.78748586299
1.80395707215
1.81553210268
1.82229862925
1.82433377453
1.82167685551
1.81436958866
1.80232483665
1.78546774392
1.7637905194
1.73734117714
1.70622865155
1.67062152648
1.63073508653
1.58682141303
1.53916654322
1.48808434405
1.43390232773
1.37694604642
1.31752838841
1.25594454845
1.19247013439
1.12736089159
1.06085342019
0.993167045217
0.924506810948
0.855068222924
0.785043443807
0.714630277426
0.644040067938
0.573508566503
0.503296483949
0.433696692084
0.365020861892
0.297605093383
0.231795024019
0.167955467021
0.106484178352
0.0477998637624
-0.00766223223875
-0.0595388114563
-0.107351645709
-0.151148320819
-0.190572631381
-0.227357989302
-0.2580576946
-0.29524094751
-0.304652797733
-0.393526889334
-0.0505687197612
-0.606150232314
-1.41941816381
2.86827321045
0.605730842423
0.798742016587
0.733644071651
0.647761459226
0.614731381598
0.616531888106
0.639370219607
0.678101059285
0.729171155591
0.789303253707
0.855762652136
0.92638092652
0.999379950563
1.07327606498
1.14681231698
1.21892065565
1.2887006371
1.35540272207
1.41841553688
1.4772549359
1.5315523529
1.58104299011
1.62555433988
1.66499459925
1.69933996902
1.72862043165
1.75290400823
1.77228042685
1.78684510273
1.79668528981
1.8018675173
1.80243636014
1.79841363899
1.78987941894
1.7768760564
1.7593574232
1.73728139472
1.71064338816
1.67948701794
1.64391033701
1.60406775159
1.56016957842
1.51248140967
1.46131907501
1.40703574261
1.35000338764
1.29059420874
1.2291655796
1.16604987277
1.10154912279
1.03593432906
0.969448740825
0.902313655861
0.83473607937
0.766914933854
0.699049856172
0.631342790484
0.564010615034
0.49727718948
0.431392514949
0.366607782709
0.303201222327
0.241449973847
0.181642400432
0.124079400164
0.0691312567493
0.0171035140246
-0.0318536812518
-0.0772223427797
-0.119429430493
-0.158569140296
-0.196628462247
-0.230340411362
-0.271739461812
-0.289942346916
-0.385437124827
-0.000436029417763
-0.631839582158
-1.4994126215
3.63470427419
0.646964355747
0.979175222604
0.821844965631
0.722352766252
0.682900888741
0.679825972531
0.699729252903
0.736416605262
0.78535707611
0.842853944302
0.906084883418
0.972933397141
1.04171808308
1.11108295814
1.17989589496
1.24720119356
1.3121955047
1.3742077856
1.43268760002
1.48719576408
1.53739447446
1.58303854566
1.62396858476
1.66010381992
1.69143262627
1.71799934085
1.73988790471
1.75720318409
1.77005271927
1.77852810632
1.78269212777
1.78256480133
1.77814587706
1.76944846848
1.75638065228
1.73883067397
1.71669901471
1.68993905207
1.6585769106
1.62271919409
1.58255219765
1.53833369714
1.49038096625
1.43905778564
1.38475973782
1.32789735973
1.26887838382
1.20809195644
1.14589675816
1.08261425916
1.01852694556
0.953881567729
0.888895375556
0.823766553576
0.758680169444
0.693822788785
0.629376200736
0.565540753443
0.502506580932
0.44049876507
0.37972316189
0.320407445864
0.262771975383
0.207041135539
0.153346299703
0.102116733275
0.0533857856079
0.00676455297073
-0.03721535301
-0.0794922172574
-0.121182257102
-0.164120012087
-0.206311111581
-0.256769137868
-0.295147634915
-0.37658008987
0.0306651539508
-0.694001376982
-1.53945167434
4.40232226667
0.628399222491
1.16731666082
0.90219936039
0.802249444519
0.756538342647
0.749840798838
0.767664506188
0.80253664371
0.849175374369
0.903619750958
0.963050536674
1.02545898579
1.08929699882
1.15336914098
1.21668514474
1.27841548343
1.33786593361
1.3944527175
1.44769252361
1.49719406686
1.54264917575
1.58382873978
1.62058326413
1.65284274183
1.68061100058
1.70395336545
1.72297781259
1.73781271065
1.74858501147
1.7553953834
1.75830402126
1.75730375252
1.75238087294
1.74353683485
1.73062489724
1.71346783951
1.69189656426
1.66579501567
1.63512793681
1.59995790892
1.56045336098
1.51688254292
1.46959464385
1.41899549308
1.3655244829
1.30963413965
1.25177109962
1.19235885834
1.13178399389
1.07038812822
1.00846551131
0.946267097049
0.884006063579
0.821872245757
0.760033978507
0.698664194457
0.637917168907
0.577981789203
0.519014801079
0.461214711925
0.404768262868
0.349843486973
0.296631542112
0.245383684855
0.195797185309
0.148454425877
0.103228925792
0.0589964524139
0.0156604019111
-0.028557514672
-0.0758081646953
-0.127936510362
-0.184395274558
-0.250173406767
-0.313923973895
-0.355499545315
0.0142220818776
-0.781182036676
-1.5387945104
5.14426270984
0.559166335972
1.37029970343
0.974123562225
0.887275030519
0.833819589613
0.824956054498
0.841214854599
0.874260730543
0.918286097904
0.969185101889
1.02422974587
1.08156608576
1.13981171897
1.19795904268
1.25516638935
1.31073953346
1.36410187301
1.41476030549
1.46229937699
1.50637108977
1.54668700831
1.58302266868
1.61523188266
1.64325661419
1.66712578366
1.68694089794
1.70285172107
1.71502781201
1.72363218872
1.72878891864
1.73056632479
1.72893770579
1.72387115744
1.71530318739
1.70299534528
1.68667930533
1.66611069055
1.64111616935
1.61161987178
1.57765734006
1.53938275516
1.49706619891
1.45107667601
1.40185365619
1.34987546246
1.29563220828
1.23960328112
1.18223912976
1.12394649873
1.06508010545
1.00593953822
0.946776051707
0.887795547649
0.82918135397
0.771083265526
0.713671214067
0.657076726252
0.601479892299
0.547042012201
0.493912639983
0.442367804451
0.392456817653
0.344235572696
0.298273135552
0.254066883697
0.211702445672
0.170890202262
0.129794952888
0.0866536879428
0.0382336090223
-0.0182715791493
-0.0843082221948
-0.159399088594
-0.244849014652
-0.32766996499
-0.329482582707
-0.0732952748503
-0.86781578955
-1.50009799236
5.83942236723
0.453044413291
1.59095491765
1.03502982434
0.9768250524
0.912848841974
0.903651816205
0.918552086246
0.949676319598
0.990754565905
1.0376427655
1.08778822713
1.13952320895
1.19166192553
1.24340440788
1.29405373789
1.34306112831
1.38997427945
1.43438901276
1.47595163327
1.51434200821
1.54926807577
1.5804884496
1.60785123429
1.63131709829
1.65095872028
1.66693879464
1.67947323153
1.688794448
1.69512004876
1.69861094224
1.69934910158
1.69728586134
1.69236233398
1.6844519801
1.67322390861
1.65830387702
1.63934090056
1.61606655521
1.58834364654
1.55619005226
1.51977106175
1.47937351263
1.43537909561
1.3882399433
1.33845245256
1.28653159237
1.23298466794
1.17828931187
1.12287411808
1.06710867655
1.01129834299
0.955695741018
0.90049733111
0.845887039625
0.791998754053
0.739000722963
0.687040938631
0.636263838906
0.586984785443
0.539160991711
0.493257360076
0.449630029379
0.408062601012
0.369163893126
0.332562919193
0.297553611511
0.262722621593
0.225163861737
0.181138354209
0.126133184919
0.0573699257216
-0.0250487707555
-0.119187090258
-0.22440897023
-0.322609701962
-0.326783985538
-0.238855613824
-0.924927774736
-1.42801908225
6.47343072869
0.325469886525
1.82775888704
1.08220344994
1.07065542247
0.991892176686
0.98459206711
0.998019689909
1.02713631576
1.06496182537
1.10745296562
1.152299916
1.19803349808
1.24370063662
1.28871444931
1.33251231393
1.37470921093
1.41498277104
1.45300922747
1.48848390798
1.52108495059
1.55047803967
1.57637687228
1.59862435196
1.61722355825
1.63232805129
1.6441997022
1.65314911736
1.65949275449
1.66351996695
1.66544192573
1.66535686474
1.66318292363
1.65879372949
1.6519599663
1.64225400381
1.62923521986
1.61248682819
1.59163473478
1.56641143681
1.53674170273
1.5027761381
1.46484750668
1.42339655877
1.37891583208
1.33191859826
1.28292696594
1.23245569839
1.18099623726
1.12899371626
1.07683433608
1.02483126359
0.973247233087
0.922274539608
0.87209751897
0.822869848434
0.774726457519
0.727987139526
0.682579948207
0.639196533406
0.598097481979
0.559430106328
0.523987530095
0.491720687302
0.462848591193
0.436697872382
0.411636544421
0.384556606806
0.350773305827
0.304839122006
0.242067880747
0.161004828862
0.0636451863704
-0.04862639889
-0.178051759437
-0.307215508523
-0.373840521321
-0.447115097115
-0.915870966704
-1.32837766378
7.03819041523
0.190970075947
2.07570635922
1.11403934795
1.16881417753
1.06928974613
1.0666056836
1.07812920028
1.10523192349
1.13954736431
1.17736110462
1.21663225864
1.25609232348
1.29506633286
1.33316079411
1.36994099923
1.40521933287
1.43880076179
1.47042454074
1.49981479209
1.52659899029
1.55034610676
1.57070391966
1.58754081755
1.60095770968
1.61124963213
1.61882173831
1.62409663873
1.62747735869
1.62932370722
1.62989636544
1.62931662076
1.62748893869
1.62419030054
1.61900682969
1.61130090802
1.60050109371
1.58618536612
1.56803939742
1.54580661393
1.51932327147
1.48861148527
1.45392368123
1.41569938357
1.37447886144
1.33082335071
1.28528647848
1.23839820411
1.19066167502
1.14253274707
1.09441568421
1.046634975
0.999462241115
0.953115785349
0.907750801262
0.863683129344
0.82082698567
0.779943940876
0.741240240906
0.705070520491
0.67231699714
0.643294306108
0.618840382753
0.599138506527
0.584002211216
0.571833521924
0.559304463113
0.541162649519
0.510893598012
0.462273865026
0.391361486464
0.297533574653
0.181303751723
0.0391240708348
-0.133266557622
-0.314438833292
-0.461152674133
-0.622549539166
-0.871864168184
-1.20725185944
7.53089936089
0.0616458055189
2.32777383929
1.13063931242
1.27128375435
1.14345307701
1.14870731461
1.15756306096
1.18276681762
1.21336175079
1.24632902317
1.2798545228
1.31288236426
1.3450665811
1.37615118757
1.40585033926
1.43422061093
1.46116943655
1.48647281943
1.50985654146
1.5308185011
1.54876804453
1.56330505801
1.57441734189
1.58240092063
1.58776984631
1.59110105551
1.59291046379
1.59365831977
1.59373716535
1.59339623829
1.59271188828
1.59158932079
1.58980526857
1.58692904519
1.58217653283
1.57464455302
1.56352903584
1.5483483415
1.52899192201
1.50555807668
1.47819946533
1.44711799021
1.41263845265
1.37523204944
1.3354435505
1.29384255455
1.25097639408
1.20737059536
1.16349993998
1.11978469936
1.07658316309
1.03415046993
0.992849693814
0.952630008438
0.914232171518
0.877804730221
0.843759325664
0.812926864956
0.785833945265
0.763663342555
0.747267515446
0.737604969808
0.734668860863
0.737224270796
0.741810954181
0.742555469561
0.731714345582
0.700998297536
0.643348104538
0.554169778838
0.430962870697
0.271354312309
0.0733762311557
-0.152271763803
-0.366684182893
-0.536330918381
-0.686483881909
-0.799928381912
-1.07050516028
7.9527275216
-0.0535225679042
2.57633500957
1.13375306238
1.37760010308
1.21296243644
1.23010080891
1.23516569852
1.25873589954
1.2854344461
1.31348967915
1.34118010888
1.36771524331
1.39311352672
1.4171635035
1.43981012418
1.46139265224
1.48185603849
1.50099276859
1.51848816249
1.53358167571
1.54548204019
1.55386046958
1.55901613079
1.56156382823
1.56228789425
1.56189744137
1.56092730934
1.55985445148
1.55908818574
1.55881265535
1.55886929294
1.55880563617
1.55814875204
1.55654440136
1.55373336902
1.54928397506
1.5422328965
1.53138842556
1.51604109222
1.49624121987
1.47244586224
1.44510326731
1.41458766853
1.38132205494
1.34578423182
1.30851440023
1.27005034204
1.23092341812
1.19164063009
1.15262491402
1.11436324763
1.07694494051
1.0410993581
1.00697052702
0.97494616392
0.945675736407
0.919716735605
0.898291936747
0.882596022477
0.87426706814
0.874507454824
0.883973657613
0.901530732238
0.92364571451
0.943629160344
0.951900603956
0.937219068427
0.888364391749
0.795964438568
0.654006868947
0.461297340019
0.223617416304
-0.0413753981518
-0.2961005853
-0.49208585498
-0.616409501076
-0.698259032654
-0.74757868948
-0.923397800742
8.30758576422
-0.148687289513
2.81429011344
1.12634043905
1.48666399132
1.27672845018
1.31014906403
1.30993826246
1.33230987685
1.35495275839
1.37811503752
1.39993599129
1.42000756552
1.43869530528
1.45572515182
1.47144567321
1.48645861789
1.50064284208
1.51382288332
1.52555509168
1.53462737149
1.5401102486
1.54204377018
1.54131573263
1.53892828745
1.53585933511
1.53279516511
1.53015338302
1.52832633229
1.52775844887
1.52879605588
1.53140996421
1.53493742955
1.53795789321
1.53879277263
1.5369232493
1.53281950788
1.52685168299
1.5185089538
1.50672822239
1.49089133634
1.47113778909
1.44791003054
1.4216315772
1.39275413896
1.3617294496
1.32906339345
1.2952808951
1.26089894221
1.22651924946
1.1924467157
1.15946329496
1.12784500258
1.09799307505
1.07037337473
1.04545516729
1.02423979972
1.00793075897
0.998352381053
0.99735451191
1.00685164971
1.02772557829
1.05917720766
1.09727087792
1.13424475653
1.15825676567
1.15442524638
1.10697338806
1.00199249264
0.830930554676
0.594647626615
0.307373515792
-0.00179654084456
-0.291722968947
-0.516846542231
-0.649995449643
-0.712820246347
-0.73747712742
-0.756095767812
-0.770475124302
8.60101161995
-0.220757026687
3.035771356
1.11198312675
1.59676612401
1.3341219813
1.38830875574
1.38104118966
1.40282260476
1.42124501427
1.43959843171
1.45555632502
1.46928234395
1.48137284368
1.49142408114
1.50045760452
1.50918103565
1.5173082833
1.52478398143
1.53084259019
1.53360088137
1.53228010429
1.52773624905
1.52163561242
1.51525342324
1.50956118245
1.50512281939
1.50204218057
1.50020566878
1.49971858793
1.50094608851
1.50416332626
1.50943205956
1.51602128555
1.52210417316
1.52555354105
1.52522687254
1.52095278349
1.5134418766
1.50322367737
1.49015019578
1.47407109888
1.45504736319
1.43325903615
1.40904282501
1.38279117853
1.35496881613
1.32614208258
1.29671741084
1.26751241384
1.239032944
1.21178906791
1.18623001469
1.16277244931
1.14210347834
1.12519642741
1.11364511034
1.1093957733
1.11488059124
1.13225216643
1.16291720765
1.20604006602
1.25740373289
1.30797156164
1.34364548532
1.34617005035
1.29583192738
1.17563647251
0.976437639932
0.702478829417
0.37553664269
0.0344566534529
-0.273300578958
-0.506804759082
-0.647303430046
-0.707518022429
-0.715562949773
-0.667690376421
-0.54644271261
-0.615480075905
8.83933764707
-0.268819035585
3.23646776771
1.09433558434
1.70577295199
1.38502206535
1.46405774872
1.44780905884
1.46975499224
1.48377046423
1.49744783725
1.5075952458
1.51517717618
1.52078190651
1.52393574078
1.52664283382
1.52934362711
1.531601226
1.53366669645
1.53408768251
1.53015143788
1.52175531873
1.51091979767
1.50008455656
1.49067619236
1.48372362401
1.4798827537
1.47835074233
1.47818278567
1.4793660867
1.48199268098
1.48567831359
1.4903058915
1.49580869514
1.50201500822
1.50848256207
1.51401695435
1.51617889174
1.51264622564
1.50476999263
1.49415698091
1.48134711256
1.46632918124
1.4490429911
1.4296278751
1.40838375633
1.38558241524
1.36191961491
1.33797555216
1.31434618349
1.29165066994
1.27039522472
1.25110085598
1.23448589203
1.22170153453
1.21437425688
1.21480387977
1.22557590993
1.24933326672
1.28762460661
1.33982502285
1.40127467801
1.46201975273
1.50606509489
1.512578299
1.45905690398
1.32666101113
1.10670755948
0.806723621173
0.453770663947
0.0918963716856
-0.228420566759
-0.466907271034
-0.608068600649
-0.66639131018
-0.674546332555
-0.639863549912
-0.528376941663
-0.345878791159
-0.461417612286
9.02904372301
-0.293536130733
3.413644814
1.07671365768
1.81138261159
1.42977252761
1.53684461607
1.50976898507
1.53271686755
1.54211235371
1.55129097124
1.55573787623
1.55743754205
1.55663226489
1.5530533879
1.54990382323
1.54672283946
1.54325682638
1.54033482656
1.53513069625
1.52396684478
1.50803628064
1.49094414235
1.47666977234
1.4671828698
1.46304610378
1.46387641774
1.46686289251
1.47041678842
1.47425923966
1.47824567536
1.482313032
1.4864855155
1.49078788921
1.49501938674
1.49929085102
1.50464784343
1.5103727707
1.51229131819
1.50848970341
1.50121300604
1.49197515042
1.48104774163
1.4684140764
1.45387051789
1.43776443081
1.42039438624
1.40219893006
1.38386975661
1.3660185564
1.34924501059
1.33418721676
1.32164714825
1.31279129407
1.30938474831
1.3137578161
1.32880125866
1.35728749142
1.40111492808
1.45966216702
1.52820844787
1.59612487592
1.64632688448
1.65629833682
1.60182716507
1.46299010146
1.2314844807
0.916935056227
0.549320814913
0.174876521615
-0.15548409554
-0.402176762111
-0.550044228351
-0.611284105558
-0.617203296007
-0.596765407564
-0.538318376165
-0.406458626558
-0.238033501177
-0.310587229849
9.17635893899
-0.296582082967
3.56597501292
1.06184390273
1.91137462078
1.46907218664
1.60607379259
1.56665209301
1.59142488518
1.59597796557
1.60087848888
1.599801037
1.59589040703
1.58871084625
1.57871922636
1.57021842314
1.56106682097
1.55214413415
1.54497160963
1.53390769835
1.51422510599
1.48994746646
1.46831194978
1.45594334452
1.45356457743
1.45652203082
1.46132838274
1.4661998473
1.47063160566
1.47475168378
1.47874744221
1.4827354563
1.48680199632
1.49094576087
1.49486801337
1.49845684808
1.50213548595
1.50703617053
1.512522388
1.51314728171
1.50996650552
1.50483699752
1.49825116473
1.49048832844
1.48121191847
1.47041682055
1.45855773303
1.44601925396
1.43343359666
1.4214760833
1.41088431599
1.40252580035
1.39761232974
1.3978717806
1.40572722916
1.42407796521
1.45593601281
1.50330223128
1.56582037106
1.63876709848
1.71145915489
1.7663281742
1.78016321508
1.72780728553
1.58859732485
1.35397769207
1.03394882104
0.65909299631
0.27577084365
-0.0656685461648
-0.326200959248
-0.490012107344
-0.566347881884
-0.581393752551
-0.565909302782
-0.534923286514
-0.469720065701
-0.342738977097
-0.200215865097
-0.164716564668
9.28698147714
-0.280190553774
3.69326471593
1.05177192208
2.00380355681
1.50383685845
1.6711277789
1.61838952941
1.6456840866
1.64519749142
1.64608459297
1.63970915601
1.63041980292
1.61690908167
1.60102412381
1.5875594475
1.57213917892
1.55853271091
1.54807829035
1.52974581257
1.49931018155
1.46853955056
1.4507891908
1.44774686502
1.45122926426
1.45641471331
1.46181650971
1.46688178678
1.47130260305
1.47526450863
1.47908619051
1.48295427114
1.48693446949
1.491009401
1.49508924499
1.49906216116
1.50270982591
1.50710401517
1.51386921282
1.51856068996
1.5195972517
1.51904480329
1.51732037261
1.51464782155
1.51076197782
1.50552510737
1.49929463617
1.49247692213
1.48578322649
1.47999872564
1.47607322733
1.47520536918
1.47911220472
1.49012210943
1.51117103001
1.54526471072
1.59462339179
1.65906904042
1.73425610109
1.80975947852
1.86828413862
1.88658353613
1.83923615004
1.70492964282
1.47421738432
1.15596213354
0.779445360831
0.38969466672
0.0361819527229
-0.241658184598
-0.425918496119
-0.522668249667
-0.554184196095
-0.547164713391
-0.523084044697
-0.487136899263
-0.421564147015
-0.306923090789
-0.185094368587
-0.0250314739928
9.36595380354
-0.246799325304
3.79616862873
1.04788539123
2.08712295673
1.53506591588
1.73140917127
1.66508840592