/*--------------------------------*- C++ -*----------------------------------*\
| =========                 |                                                 |
| \\      /  F ield         | OpenFOAM: The Open Source CFD Toolbox           |
|  \\    /   O peration     | Version:  v1806                                 |
|   \\  /    A nd           | Web:      www.OpenFOAM.com                      |
|    \\/     M anipulation  |                                                 |
\*---------------------------------------------------------------------------*/
FoamFile
{
    version     2.0;
    format      ascii;
    class       volScalarField;
    location    "400";
    object      pa;
}
// * * * * * * * * * * * * * * * * * * * * * * * * * * * * * * * * * * * * * //

dimensions      [0 2 -2 0 0 0 0];


internalField   nonuniform List<scalar> 
6400
(
0.313692897431
0.255803761121
0.144557738996
0.068016592925
0.0649424193341
0.123600704342
0.237296496883
0.361709163821
0.478429354076
0.586516116396
0.684469796516
0.76884563191
0.837437816484
0.890044370033
0.927642008079
0.95167101519
0.963743909001
0.965533496243
0.958675807451
0.944691486055
0.924935124435
0.900582412362
0.872632604933
0.841926219097
0.809162348538
0.774922217626
0.73968797367
0.703864596988
0.667796196307
0.631786370277
0.596118267501
0.561101722501
0.527158765023
0.494971563802
0.465058617484
0.434941132103
0.39090819466
0.323567067875
0.234203807581
0.131482400473
0.0220802029121
-0.0906722542436
-0.20526077355
-0.320673986861
-0.4359766863
-0.550304124188
-0.662879815787
-0.772991143907
-0.879951001034
-0.983078197248
-1.08168378302
-1.17506753984
-1.26251245547
-1.3432891196
-1.41666183074
-1.48190785025
-1.53834097462
-1.58534848326
-1.6224312902
-1.6492528985
-1.66568502419
-1.67185222932
-1.66816264268
-1.65532633604
-1.63435035874
-1.60651529056
-1.57332519421
-1.53644408613
-1.49760204532
-1.45851437255
-1.42071706655
-1.38554172992
-1.35365590123
-1.32552145336
-1.29946171239
-1.27578500051
-1.24763094904
-1.22740603408
-1.19445322706
-1.2391611226
0.156138964426
0.0481843078484
-0.00718727247056
-0.0351221443583
0.0284223331194
0.249112686458
0.561799091524
0.945509341398
1.39564289505
1.90194438051
2.45034627168
3.02618867751
3.61636310835
4.21004451133
4.79852725458
5.37487964959
5.93369226803
6.47087781711
6.98346052737
7.46936293169
7.9272093344
8.35616559509
8.75580551298
9.12600890145
9.46687549456
9.77866359206
10.0617369546
10.3165314003
10.5435241855
10.7432190016
10.9161299882
11.0627643516
11.1836202636
11.2793812724
11.3528310613
11.4152336049
11.4916929891
11.5778311548
11.650407788
11.6994602136
11.724040778
11.7241439769
11.6990464685
11.6477727665
11.5694352742
11.4632619654
11.3285547126
11.1646835958
10.9711123994
10.7474280573
10.4933731892
10.2088787895
9.89410737612
9.54950040331
9.17583704239
8.77429458043
8.34651402424
7.89465735774
7.421454898
6.93022647666
6.42487203205
5.9098176303
5.38991590545
4.87029612694
4.35617269563
3.85261959676
3.36433087175
2.89537845381
2.44899883145
2.02739315207
1.63163087322
1.26146820209
0.915619804983
0.591180801825
0.285806134012
-0.00617904391418
-0.278891965046
-0.543749516662
-0.719818559432
-0.946286209712
0.0503038326727
-0.0117958988982
-0.00284636663472
0.0119580541122
0.06564293487
0.183962421461
0.352646230744
0.564317337063
0.809142078516
1.07412934865
1.34701207746
1.61776107538
1.87839732907
2.12288672447
2.34705393609
2.54830351628
2.72527129603
2.87752168055
3.00530381299
3.10934633731
3.19069035446
3.2505585397
3.29026150223
3.31113040168
3.31447377768
3.30154850389
3.2735458281
3.23158387925
3.17670934437
3.10989966297
3.03207081854
2.94406935323
2.84660314271
2.73967445756
2.62038519331
2.47803799801
2.31107971331
2.13982010212
1.97771181278
1.82331022524
1.67437987704
1.53120240009
1.39499632528
1.26697674671
1.14823942219
1.03977559177
0.942420241358
0.856784690226
0.783208759267
0.721732823619
0.672075879697
0.633620746349
0.605402826933
0.586109593101
0.5740879132
0.567367948461
0.563702157175
0.560629084354
0.555559780046
0.545893080446
0.529152289229
0.503141132705
0.46610315304
0.416873384567
0.355001900825
0.280835687032
0.195545714269
0.101088630625
0.000118083559785
-0.104197173159
-0.208327913204
-0.308829812797
-0.402296277603
-0.486970597046
-0.560351141703
-0.627219146936
-0.676224704603
-0.733083541685
-0.664177673017
-0.825951391428
-0.174002341257
-0.0475866811344
-0.0821421502847
-0.0965829285902
0.031186897321
0.216694125803
0.426953063483
0.668004854369
0.936226665229
1.22135353251
1.51567284425
1.81411789053
2.11247578963
2.40714367956
2.69540035896
2.97537829582
3.24583922602
3.50597789381
3.75529325088
3.99349879272
4.22044970664
4.4360903237
4.64041681308
4.83345654777
5.01525431863
5.1858675937
5.34536267671
5.49381633362
5.63131368342
5.75795051902
5.87381644112
5.97899759211
6.07351479749
6.15773756229
6.23313336607
6.30496396493
6.35839155363
6.38705483702
6.39691114843
6.38897901232
6.3612446901
6.31264002252
6.24315932136
6.15306192292
6.04264814157
5.91235331543
5.76282614002
5.59494274932
5.40980569735
5.20874173213
4.99329880899
4.76523117604
4.52647645747
4.27911808298
4.02533804382
3.76735284801
3.50733904432
3.247344916
2.98919966758
2.73442324445
2.48415339098
2.23909752821
1.99952576471
1.76530863811
1.53600646145
1.31100083991
1.08966472215
0.871544376021
0.65656593848
0.445192044555
0.23868408058
0.0390440390814
-0.150260891945
-0.325767401476
-0.479798431476
-0.611848079004
-0.69557961051
-0.764957183969
-0.613848173923
-0.822083938256
-0.530571959978
0.105515522666
-0.0483575202845
-0.047503470232
0.213622650949
0.465594861384
0.677471744348
0.891214912446
1.11435716078
1.34028156857
1.5658473443
1.78997089727
2.01086241241
2.22615721204
2.43364787088
2.63152000478
2.81830196207
2.9928014988
3.15407927724
3.30142682723
3.43433816361
3.5524771331
3.65564895343
3.74377426667
3.81686848902
3.87502241653
3.91838751176
3.94716127751
3.96157726707
3.96189131368
3.94837848399
3.92130592801
3.88095566256
3.82738376554
3.76050966228
3.68052799592
3.59886121631
3.5175963998
3.43833453702
3.36212687261
3.28865527555
3.21745345339
3.14838037925
3.08131527468
3.01593134181
2.95169700147
2.88792757767
2.82381309898
2.75843707075
2.69080941261
2.61991100604
2.54474745764
2.46440478918
2.37810804136
2.28527604869
2.18557117608
2.07893483528
1.96560571326
1.84611169857
1.72123433262
1.59194239864
1.45930129281
1.3243655769
1.18807091331
1.05114120013
0.914027408423
0.776894138537
0.639648932222
0.502044570219
0.363772605546
0.224746667776
0.0850394729211
-0.0540741674786
-0.191799743133
-0.321797497023
-0.446962766742
-0.534188414473
-0.634326483845
-0.451931428639
-0.789009904547
-0.788977580062
0.580199870457
0.153557345911
0.187221023752
0.530411669326
0.771326445897
0.936967011534
1.10075043701
1.27271770329
1.44785939641
1.62599880775
1.80791902204
1.9926556181
2.17822196707
2.3625608114
2.54384762489
2.72050447771
2.89119015482
3.0548005659
3.21045993412
3.35749726853
3.495417842
3.62387448923
3.74264338686
3.8516026285
3.95071582274
4.04001809805
4.11960657626
4.18963213664
4.2502948186
4.30184007286
4.34456528483
4.37884160453
4.40517638285
4.4239246505
4.43229059831
4.42661361273
4.40632312837
4.37184972779
4.3239296283
4.262995377
4.18940739306
4.1038144958
4.00714257618
3.90044991774
3.78485132113
3.66149067868
3.53150542896
3.39598026904
3.2559030644
3.11213297254
2.96537975528
2.81619707007
2.66498892958
2.51203243414
2.35751426075
2.2015807199
2.04439521356
1.88619842108
1.72736090818
1.56842002845
1.4100905475
1.25324427275
1.09885640857
0.947926365183
0.801382531051
0.659995940281
0.524302458503
0.394592100607
0.270875525603
0.153078050313
0.0407926937138
-0.0656181798259
-0.167393976576
-0.260034233367
-0.352517152584
-0.40886977729
-0.505862208041
-0.252537011723
-0.72379292305
-1.06202708387
1.27912636691
0.458005315122
0.52808583078
0.877338356962
1.04560555178
1.1425208588
1.25022725554
1.37138111444
1.50042682145
1.63771307306
1.78343702032
1.93586811205
2.09247263482
2.25074242279
2.40840259307
2.56342321012
2.71402121575
2.858663104
2.99605474911
3.12512038584
3.24497676176
3.35490818324
3.45434339422
3.54283595556
3.62004692512
3.68573099281
3.73972421306
3.78193478442
3.81233357453
3.83094826252
3.837846739
3.83312704639
3.81688004241
3.78963543735
3.75487525369
3.71439719925
3.66886556433
3.61900505478
3.56547532123
3.5085337875
3.44807181088
3.38385324429
3.31562969109
3.24313648055
3.16609321274
3.08423691626
2.997359267
2.90532967577
2.80810689665
2.70574199769
2.59837435159
2.48621995476
2.36955474256
2.24869517355
2.12398058448
1.99576061037
1.86439198747
1.73024704023
1.59373468658
1.4553311744
1.31561448493
1.17529340626
1.03522086702
0.896384314685
0.759866288835
0.626790235512
0.498235110353
0.375192346816
0.258462066049
0.148796636186
0.0464885195518
-0.047438942788
-0.134280363333
-0.208916097486
-0.283765091299
-0.316537436788
-0.41065140969
-0.0654058704038
-0.667785474191
-1.34061959096
2.17542374538
0.795335125714
0.895527187358
1.18142713795
1.25004650605
1.28428345283
1.34901942292
1.43465850422
1.53448190383
1.6479578002
1.7737778083
1.90923834631
2.05136475967
2.19741091854
2.34492199837
2.49172121936
2.63590455936
2.77583333011
2.9101179226
3.03759550916
3.15730613793
3.26846947217
3.37046382277
3.46280754541
3.54514343736
3.61722558882
3.6789088569
3.73014071288
3.77095400174
3.8014649961
3.82186348473
3.83243641803
3.8334985658
3.82541730177
3.80736302413
3.77889886172
3.74029899944
3.69213438539
3.63510686274
3.56991680216
3.49722922441
3.41772796594
3.33213593273
3.24117112259
3.14549225999
3.04566873234
2.9421697244
2.8353629096
2.72552105986
2.61283818337
2.49745343426
2.37947925227
2.25902950964
2.13624408303
2.01130692011
1.88445589336
1.75598444728
1.6262375905
1.49560573367
1.36452147057
1.23346257163
1.10296285652
0.973627415298
0.846147523611
0.7212995369
0.599942486102
0.482965512568
0.371272156194
0.265663212758
0.166985183036
0.0755958215754
-0.00731496274844
-0.0833607274445
-0.146740485205
-0.212910449936
-0.232131439683
-0.336120536635
0.100976812653
-0.632926591433
-1.61574822658
3.24374264628
1.11412931717
1.25812855025
1.43603687499
1.40883851433
1.39834578082
1.43427810508
1.49652793028
1.5779083413
1.67649531696
1.78944568428
1.91329954407
2.04480983542
2.18110783682
2.31965703155
2.45821771439
2.59482882568
2.7277892598
2.85563614418
2.9771221975
3.09119366017
3.19696968572
3.29372363644
3.38086672338
3.45793390446
3.52457207977
3.58053025308
3.6256515362
3.6598668205
3.68319038461
3.69571792085
3.69763568453
3.68925914399
3.67121249165
3.64449668422
3.60964644536
3.56713705515
3.51747184207
3.46111943927
3.39847006528
3.32983981943
3.25551779848
3.17581102358
3.09105711959
3.0016165818
2.90786223856
2.81016880945
2.70889929077
2.60438952624
2.49693549486
2.38678725017
2.27415148019
2.15920286607
2.04210307966
1.92302447299
1.80217486398
1.67981819034
1.55628918642
1.43199820295
1.30742880274
1.18312947471
1.05970600375
0.937815915583
0.818172885751
0.701537494286
0.588735704908
0.480605083549
0.378007893364
0.281695183044
0.192488067851
0.110606975827
0.0371148683772
-0.0302062965602
-0.0852337841071
-0.146703567914
-0.158182264277
-0.28121455999
0.244844751235
-0.614521404037
-1.86121630185
4.45722819289
1.37359328312
1.60297596522
1.64818787463
1.54537130486
1.50708537142
1.52359186749
1.57003600294
1.6393859544
1.7281518121
1.83224347442
1.94771577055
2.0711873265
2.1997650042
2.3309324288
2.46249204353
2.59252893433
2.71938036809
2.84160898786
2.95797976726
3.06743972755
3.16910007192
3.26222044567
3.34619540295
3.42054288094
3.48489455842
3.53898790877
3.58265971937
3.61584117251
3.63855524903
3.65091443135
3.65312953907
3.64547321798
3.62827576417
3.60166744052
3.56590702983
3.52144117325
3.46883534224
3.40871368393
3.34171307278
3.26845484699
3.18953699685
3.1055346501
3.01699500169
2.92442751008
2.82829725419
2.72902347864
2.62698014519
2.52249622547
2.41585571233
2.30729881843
2.19702530219
2.0852015732
1.97197193163
1.85747443864
1.74186078588
1.62531598592
1.50807930898
1.39045819588
1.27283701293
1.15567616213
1.03950759015
0.924925963633
0.81259170397
0.703207083973
0.597559132553
0.496440104349
0.400680295087
0.310956759252
0.228082036034
0.152110546969
0.0838598148653
0.0205288614883
-0.0315179494271
-0.0936888728571
-0.104918458577
-0.250913474016
0.360973765027
-0.61550347633
-2.05923314159
5.77297030117
1.54346633474
1.93319743514
1.83226638305
1.67951345815
1.62411389211
1.62564752935
1.66019889487
1.72056958504
1.80160400403
1.89824621896
2.00622080371
2.12206502213
2.24290341688
2.36629037204
2.49012179973
2.61257652643
2.73207278342
2.84723615991
2.95687543381
3.05996375675
3.15562318354
3.24311189284
3.32181333132
3.39122722831
3.45096173164
3.50072724431
3.54032998518
3.56966920646
3.58872790357
3.59758152499
3.59636904571
3.58541558161
3.56526035847
3.53622742924
3.49865933204
3.45297599774
3.39965389433
3.33919783103
3.27212674324
3.19896896669
3.12026297041
3.03655817872
2.94840909814
2.85636220807
2.76094056817
2.66263030839
2.5618703431
2.45904540651
2.3544831415
2.24845565411
2.14118536728
2.03285497483
1.92362043209
1.81362562548
1.7030205424
1.59197428588
1.48069488955
1.36943936546
1.2585266524
1.14833657953
1.03930933137
0.931933522896
0.826766306856
0.724389599223
0.625449191587
0.530612972158
0.440568903816
0.355700287738
0.276747168494
0.203365790595
0.135696345068
0.0704559954988
0.0138346020087
-0.0554504455505
-0.0806720839618
-0.241935454603
0.448739399536
-0.654527034297
-2.19601500163
7.1417845042
1.61050762094
2.26186009619
1.99970752678
1.82088439777
1.75214460948
1.74045859444
1.76531097113
1.81823942044
1.89244602067
1.98212330667
2.08275154925
2.19082949629
2.30354786673
2.41858363654
2.53397503346
2.64803839727
2.75931254614
2.86652185139
2.96855177575
3.06443171355
3.15332256015
3.23450699426
3.30738179633
3.37145137968
3.42632219132
3.47169814669
3.50737515143
3.53323955909
3.54925659001
3.55548629157
3.55203906482
3.53925155493
3.51751799139
3.48701163244
3.44805986401
3.40109647595
3.34661989149
3.28516670671
3.21729591977
3.14357831473
3.06458973878
2.98090708008
2.8931035771
2.80174106022
2.7073595541
2.61046596101
2.51152295288
2.41093938598
2.30906365825
2.20618246121
2.10252441846
1.99827053002
1.89356850168
1.78854808681
1.68334314293
1.57809804719
1.47299123664
1.36823809194
1.26410574595
1.16090762842
1.05901352905
0.958807634554
0.860722865179
0.765275000917
0.672858379475
0.584019540227
0.49924451871
0.418136719895
0.341155487051
0.26743319306
0.1956638917
0.122682077707
0.0527064190766
-0.030791863778
-0.0899023771681
-0.233571632643
0.508004726799
-0.759196555615
-2.26525996285
8.51364234818
1.57651589694
2.60402127649
2.15576767439
1.97212790631
1.88933753705
1.86586154374
1.88268244533
1.92907285872
1.99682188833
2.07953722743
2.1725336457
2.27233675591
2.37626411406
2.48216597231
2.58826173514
2.69303497463
2.79516781867
2.89350155665
2.98701292217
3.07479985766
3.15607231081
3.23014611537
3.29643822182
3.35446297852
3.40382845283
3.44423367076
3.47546408121
3.49739147973
3.50996078566
3.51321212898
3.50722243897
3.49236049968
3.46902231068
3.43736443328
3.39767961476
3.35036371364
3.29586741203
3.23467811332
3.16731613717
3.09433024052
3.01629042715
2.93378002175
2.84738705465
2.75769386408
2.66526511434
2.57063495204
2.47429457243
2.37668085754
2.27816745943
2.17906187822
2.07960626055
1.97998744121
1.88035177081
1.78081750494
1.68150650266
1.58253713133
1.48405852137
1.38624171702
1.28931133385
1.19350652103
1.09913301936
1.00649286722
0.915803598216
0.827796061615
0.742238978823
0.659447290136
0.579966353224
0.502370383341
0.425929448286
0.348691154201
0.267776934878
0.180254617516
0.0878483857592
-0.0194790640708
-0.123326689745
-0.202257563408
0.490678571382
-0.911991670706
-2.26628997576
9.84438582472
1.45591784577
2.97160974689
2.29985386363
2.13226844486
2.03229882667
1.99918582904
2.0093804445
2.04983427711
2.11126192165
2.18681430138
2.27174316901
2.36268781838
2.45715995272
2.55323013844
2.64933005411
2.74413019831
2.83646902309
2.9253135171
3.00973856868
3.08891633719
3.1621111873
3.22867694455
3.28805538468
3.33977478938
3.38344855277
3.41877376046
3.44552872737
3.46357345148
3.47283989914
3.47335209389
3.46517566867
3.44866736605
3.42414603963
3.39173110215
3.35169202864
3.30441051808
3.25031979744
3.18988430048
3.12359983349
3.05199275388
2.97561492305
2.8950372588
2.81084229087
2.72361458427
2.63392864639
2.5423349411
2.44934558462
2.35542094093
2.26095710894
2.16628262158
2.07165489942
1.9772707437
1.88328212087
1.78980196669
1.69695175998
1.60482972545
1.51357675123
1.42332051811
1.33426759868
1.2465900718
1.16056603646
1.07654877979
0.994092581438
0.914584569744
0.837635866718
0.762402028736
0.689349782197
0.615959698071
0.539273611037
0.455017049825
0.359108017833
0.249555630307
0.127561555431
-0.0111637745803
-0.149155741951
-0.154204605244
0.35416527761
-1.07491903694
-2.2032225384
11.0988425803
1.27081272678
3.37020969044
2.42772974499
2.29963124761
2.17786432592
2.13819845382
2.14284555212
2.17780854441
2.23294148271
2.30104971219
2.37745010134
2.45898825724
2.54343248132
2.62911225635
2.71469210328
2.7990393427
2.88115235172
2.9601247318
3.03512909015
3.10541138123
3.17028986513
3.22915614931
3.28147642232
3.32679245889
3.36472212838
3.39495942387
3.41727425611
3.43151304623
3.4375958478
3.43553346461
3.42540549886
3.40754328194
3.38219143866
3.34945092719
3.30956625473
3.26288899103
3.20981850633
3.15078498117
3.08625243333
3.01671933275
2.94271425754
2.86478999815
2.78351716473
2.69947548455
2.61324266346
2.52537992488
2.43641692283
2.34683699423
2.25705945562
2.16743789512
2.07824931084
1.9897069241
1.90197768878
1.81517340746
1.72943710269
1.64485196784
1.56157618655
1.47970559514
1.39952247605
1.32114160275
1.24461834897
1.17093057398
1.0995027952
1.03107221679
0.965691043007
0.901623240731
0.837479207935
0.768927231225
0.690481762885
0.59569815514
0.480371961674
0.345020879073
0.192915165157
0.0232567306304
-0.136808603105
-0.129332693712
0.080917393413
-1.19884304103
-2.0831555563
12.2520651139
1.04638441466
3.79857297317
2.53429503213
2.47325099936
2.32335358039
2.28102191872
2.28075868641
2.31061588532
2.3594358461
2.41982201885
2.48729696022
2.55899501134
2.63299334405
2.70790804562
2.78264810523
2.85628002483
2.92796048692
2.9969061737
3.06238389575
3.12370996057
3.18025373447
3.23144196685
3.27676305986
3.31576994081
3.34808295342
3.37339045667
3.39145242656
3.40209619415
3.40522956241
3.40082411703
3.38901689759
3.37014757174
3.34430813954
3.31161030975
3.27229226674
3.22667508927
3.17512031549
3.11802116072
3.05580664771
2.98894246693
2.91792757736
2.84328969749
2.76558042238
2.68536764489
2.60322598031
2.51972223624
2.43540036307
2.35076773956
2.26626819786
2.18228814138
2.09913110058
2.01703521387
1.93619955135
1.85674927619
1.77886354121
1.70262793371
1.62830691516
1.55595320206
1.48586348372
1.41879269629
1.3546283026
1.29416390028
1.23757926547
1.18480207692
1.13521360631
1.08627158221
1.03395393673
0.971243627338
0.890206103967
0.783785474984
0.64967019081
0.491260848356
0.310599352325
0.102303591848
-0.103855782337
-0.189387853904
-0.286606442346
-1.2270431866
-1.91478312952
13.2887304982
0.807057903935
4.24968216124
2.61573363423
2.6530367961
2.46636756468
2.42605470527
2.4210272424
2.44618998924
2.4886687683
2.54111224215
2.59937486831
2.66094440948
2.72424635204
2.78820086229
2.85196539522
2.9148038423
2.97602658988
3.03496837337
3.09098502793
3.14345858033
3.1918049529
3.23548205197
3.2739965751
3.30690916485
3.33383933591
3.3544671552
3.36854043392
3.37586454075
3.3763345843
3.36986990177
3.35669118156
3.33714544759
3.31116283213
3.27886565448
3.2404969752
3.196352355
3.14675606875
3.09206366123
3.03266745781
2.96899704195
2.90151726395
2.83072536328
2.75714865511
2.68133763847
2.60385946305
2.52528288102
2.44616380908
2.36703690145
2.28837326057
2.21060118849
2.13406010479
2.05903219286
1.98574848764
1.91439438596
1.84522550773
1.77836836165
1.71413089606
1.65323307981
1.59585804722
1.54271874769
1.49441573801
1.45151178599
1.41446519566
1.38286114649
1.35478185651
1.32558689736
1.28799168654
1.2322787727
1.14907839397
1.03182637621
0.878767880633
0.689909017409
0.457839927482
0.173289254972
-0.124096686222
-0.350788391657
-0.623277751911
-1.14257587037
-1.70726651367
14.2017221239
0.574026261741
4.71271130869
2.67072446288
2.83925159719
2.60458793633
2.5719302433
2.56174472981
2.58271384315
2.61882448505
2.66319320602
2.7120853827
2.763388519
2.81590420437
2.86886469504
2.92167568807
2.97379463193
3.02468091273
3.07378200685
3.12053768867
3.16439021889
3.20479685625
3.24124149301
3.27324444153
3.30036970116
3.3222322891
3.33850169471
3.34891147305
3.35324894871
3.35139559315
3.34324900911
3.32908550035
3.30918677217
3.2834111301
3.25186328044
3.21478803768
3.17246659867
3.12519601959
3.0733007359
3.01713969919
2.95710651126
2.89362929435
2.82716995543
2.75822636695
2.68732593149
2.61502441986
2.54188988106
2.46848921467
2.39539019534
2.32309404546
2.2520890976
2.18274978236
2.11544760916
2.05041391964
1.98808551689
1.92860012385
1.8727761866
1.8209270173
1.77358798017
1.73168074658
1.69599650231
1.6677474168
1.64790890561
1.63683061663
1.63291601314
1.63176557836
1.62518248855
1.60196003339
1.54936154334
1.45579426916
1.31228483338
1.11247595549
0.850186615586
0.520134129112
0.139607133834
-0.221711899925
-0.502256061134
-0.758193569412
-0.973261644893
-1.46948051582
14.9903226185
0.363984326677
5.17509456741
2.70070492739
3.03181750502
2.73579140676
2.71752936299
2.70116989728
2.71859103368
2.74830505237
2.78457258913
2.82406405589
2.86510338541
2.90688442577
2.94895307742
2.99096077367
3.03255523375
3.0733406675
3.11287296642
3.15067054313
3.18623003216
3.21904373126
3.24861574596
3.27447434833
3.29618213034
3.3133455515
3.3256213233
3.33272792947
3.33444011158
3.33062776823
3.32118651797
3.3064070001
3.28648020955
3.26124061266
3.23078039048
3.19534064357
3.15518851471
3.1105968034
3.06186202587
3.00931331467
2.95331094547
2.89424791682
2.8325492904
2.76868159964
2.70314435497
2.63648057431
2.56925650757
2.50204855969
2.435470687
2.37006008138
2.30638909701
2.24484124066
2.18608126276
2.13006499673
2.07808040981
2.03035352544
1.98715617817
1.94962119035
1.91842934373
1.89518901756
1.88151086483
1.87919876033
1.8891836609
1.91054281105
1.93869318758
1.96461189305
1.97436451838
1.95072806514
1.87528466593
1.73106673975
1.50492071268
1.19090067647
0.795579805935
0.348289804723
-0.0853231522862
-0.421777894528
-0.639869318794
-0.789264479698
-0.870102823814
-1.20959164654
15.6584541713
0.188807156582
5.62430653773
2.70946682552
3.22979195515
2.85803962793
2.86195564427
2.83769802372
2.8524200857
2.87569367289
2.90394561795
2.93412191521
2.96502313896
2.99624067172
3.02763107124
3.05908943449
3.09045125576
3.12146284581
3.15178445838
3.18100770166
3.20867643462
3.23431107551
3.2574293229
3.27756138563
3.29426331317
3.30712878811
3.31579914968
3.31997627872
3.31942709612
3.31401495566
3.30367058396
3.28863300095
3.26900062694
3.24461480755
3.21556676306
3.18209122019
3.14444110446
3.10286764509
3.05764116313
3.009061663
2.95745631599
2.90318463283
2.84663380429
2.78824023705
2.72847313654
2.66786185722
2.60697422711
2.54640618147
2.48681916437
2.42880024992
2.37311816832
2.32000155958
2.27077725951
2.22566072113
2.18532297781
2.15057735041
2.12181346517
2.10075152582
2.08901549966
2.08909500045
2.10329799446
2.1333200416
2.17849059835
2.23413772538
2.28953805979
2.32749407977
2.32486292576
2.25553447097
2.09443410999
1.82329118845
1.43806796096
0.957618027294
0.429593325106
-0.0716253525111
-0.463197053848
-0.699366933584
-0.814347667171
-0.866129608338
-0.892218146611
-0.934821189434
16.213118719
0.0558603138359
6.04913776509
2.70239879382
3.43114820344
2.96992451621
3.00445009615
2.9698489864
2.98298135972
2.99973066443
3.02016633302
3.04121026437
3.06220354788
3.08312676248
3.10414320079
3.12539020305
3.14688996793
3.16852859223
3.19006684307
3.21116255064
3.23139852073
3.25031559475
3.26743832782
3.28229257376
3.29442322417
3.30340703948
3.30886798457
3.31048625562
3.30802096586
3.30131775434
3.29037550375
3.27541984417
3.2564056748
3.23321319976
3.20593568063
3.17478242824
3.13998161906
3.10176506947
3.06038257395
3.01611018302
2.96924290702
2.9201100999
2.8690601199
2.81650072722
2.76286921568
2.7086895354
2.65452369073
2.60101756841
2.54889773005
2.49884685531
2.45189904541
2.40872861221
2.37027750469
2.3369781207
2.30949883546
2.28901358442
2.27685226499
2.27556595864
2.28780414221
2.3166911095
2.36427739253
2.43023111477
2.50927204885
2.58907465568
2.64867041854
2.6594100669
2.58814631828
2.40384672981
2.08630095108
1.63655567879
1.08594570623
0.498298215695
-0.0417776673368
-0.456224646615
-0.708124841972
-0.820919745216
-0.848730717226
-0.810528467458
-0.701402176221
-0.651404154875
16.6631517546
-0.0313554734841
6.44045382709
2.68563835102
3.63284857548
3.07075300326
3.14426106879
3.09628359483
3.10922342656
3.11929516686
3.13222736959
3.14439820486
3.15580042403
3.16677815743
3.17779873718
3.18924152809
3.20131440491
3.21404129348
3.22727836018
3.2407408711
3.2540408715
3.26673231448
3.2783397252
3.28837903929
3.29638021488
3.30190095935
3.30454791903
3.30397631976
3.29994248193
3.29221776205
3.28095600436
3.26642267379
3.24833961004
3.22665849944
3.20149442928
3.17302087483
3.1414253604
3.10691181377
3.06970740945
3.03006826734
2.98825987221
2.94458627617
2.89935471044
2.85295534048
2.80578799896
2.75838379634
2.71127836921
2.66534068384
2.62120065259
2.58018940585
2.54323454752
2.51078432489
2.48391434735
2.46322447841
2.4499215091
2.44586322531
2.45345703387
2.47613912586
2.51718652982
2.57924456655
2.66195142316
2.75963902233
2.85833494185
2.93418835047
2.95398104616
2.87963390933
2.67629808025
2.32386811034
1.82868437824
1.2315345338
0.605719779971
0.0405954335352
-0.387990718409
-0.648385001641
-0.765424778239
-0.79502497963
-0.765800264126
-0.658020005179
-0.48585788147
-0.364603575603
17.0182605418
-0.0724130417475
6.79150199334
2.66532037844
3.83112275712
3.16061247096
3.28051791364
3.21584828774
3.23024344128
3.23339315904
3.23924737355
3.2428588856
3.24505901591
3.24650394151
3.24796762391
3.25007041363
3.25320469644
3.25752936319
3.26298930824
3.26934567101
3.27623012634
3.28320324029
3.28978296806
3.29547059247
3.29977863767
3.30224626099
3.30246432001
3.3000769838
3.29483388418
3.28649945845
3.27530127606
3.26145320202
3.24460713172
3.2247283923
3.20195798268
3.17645397224
3.14836823542
3.11787091256
3.08515708452
3.05045887642
3.01400456843
2.9760842161
2.93696147666
2.89700699949
2.85658630843
2.81634620867
2.7766308344
2.73892767214
2.7039821725
2.67266379208
2.64622919491
2.62514828493
2.61067321205
2.60392251154
2.60683308344
2.6221349662
2.65321548701
2.70395508153
2.77705520522
2.87243424859
2.98400415031
3.09688067526
3.18519280843
3.21294842039
3.13883604735
2.92590300829
2.55421692712
2.03344218334
1.40944747428
0.759620299506
0.173910630057
-0.273938851709
-0.552614835824
-0.682028416253
-0.716550242735
-0.705059570843
-0.650170066809
-0.522555172002
-0.361150494886
-0.0788084716918
17.288338883
-0.0691729056686
7.09788990943
2.64701015873
4.02184647193
3.24030811462
3.41214799418
3.32763024509
3.34525591713
3.34115260124
3.34046088277
3.33586119415
3.32930840595
3.32168419565
3.31408009818
3.3073541242
3.30208065429
3.29855000301
3.29678622341
3.29658292306
3.29758334057
3.29934988322
3.3013872739
3.30317884207
3.30421777886
3.30402641037
3.30218710731
3.29834733036
3.29225892696
3.28370658048
3.27294136382
3.2600955676
3.24481423054
3.22705562765
3.20696937828
3.18470631089
3.16039824591
3.13418915895
3.10623599202
3.07675239146
3.04592298588
3.01400911893
2.98124025841
2.94801646024
2.9146156538
2.88191373304
2.85055782123
2.82165902429
2.79624973325
2.7752057081
2.75982838406
2.75097297813
2.75020650893
2.7593030905
2.78101784783
2.81891056951
2.87683770752
2.95791608139
3.06206334378
3.1833336804
3.30643026931
3.40474419663
3.44088169781
3.37192309874
3.15943539156
2.78296720049
2.25260038436
1.61507586221
0.94784519927
0.339731255339
-0.136621568389
-0.448222896183
-0.608443348381
-0.663190384062
-0.664241121783
-0.640275241713
-0.579871827372
-0.457585008757
-0.318690618399
0.202335637318
17.4829802142
-0.0250573306966
7.35734891385
2.63536125872
4.20092983454
3.31120355002
3.53785975303
3.43099984565
3.45355549341
3.44182514778
3.43520891237
3.42276430674
3.40795892929
3.39176900795
3.37562774029
3.36062167502
3.3475041084
3.33669161984
3.32827493107
3.32206584579
3.31771511891
3.3147828885
3.31275407625
3.31109212845
3.30926792423
3.30679031511
3.30324161534
3.2982906791
3.29170685523
3.28332285082
3.27332198981
3.26179121355
3.24839724504
3.23308782288
3.21600392123
3.19727485319
3.17701200061
3.1553492224
3.1324094399
3.1083738774
3.08339462152
3.05771983037
3.03157842185
3.00530417156
2.97954311063
2.95490712527
2.93212944906
2.91243825843
2.89693473487
2.88678001567
2.88338550018
2.88801232059
2.90266693693
2.92986731028
2.97311093854
3.03631189996
3.12260098424
3.23227888205
3.35960797145
3.48973666087
3.59620589833
3.64159327082
3.58239608594
3.37916005348
3.00987332051
2.48268012337
1.8418740894
1.16230573199
0.530933801039
0.0209794900457
-0.330380399861
-0.529220998869
-0.613352749807
-0.6302390414
-0.616921856015
-0.58683348497
-0.525740303484
-0.414818334546
-0.295116347281
0.475775046312
17.6111858616
0.0555866753802
7.5693983482
2.63397034644
4.36464328727
3.37499915793
3.65618520035
3.52562058917
3.5544816253
3.53479266954
3.52292816559
3.50301546055
3.48050043341
3.45627873377
3.43216429186
3.40945522258
3.38908025438
3.37157545926
3.3570822163
3.34541841351
3.33624283179
3.32910846406
3.32347474561
3.31878454868
3.31448104285
3.31006570696
3.3051298999
3.29938534605
3.29259537503
3.28467593526
3.27580689653
3.26596218382
3.25482460473
3.24230951594
3.22854096155
3.21363191582
3.19767547586
3.18078859461
3.16307631528
3.14469775835
3.12585148344
3.10654848235
3.08742749104
3.06861222541