/*--------------------------------*- C++ -*----------------------------------*\
| =========                 |                                                 |
| \\      /  F ield         | OpenFOAM: The Open Source CFD Toolbox           |
|  \\    /   O peration     | Version:  v1806                                 |
|   \\  /    A nd           | Web:      www.OpenFOAM.com                      |
|    \\/     M anipulation  |                                                 |
\*---------------------------------------------------------------------------*/
FoamFile
{
    version     2.0;
    format      ascii;
    class       surfaceScalarField;
    location    "400";
    object      phi;
}
// * * * * * * * * * * * * * * * * * * * * * * * * * * * * * * * * * * * * * //

dimensions      [0 3 -1 0 0 0 0];
oriented        oriented;


internalField   nonuniform List<scalar> 
12640
(
2.37307183729e-05
-2.37307260464e-05
3.38453867007e-05
-1.01146789104e-05
3.7448049393e-05
-3.60267362109e-06
2.85258833224e-05
8.92215699014e-06
7.37207597685e-06
2.11537972023e-05
-2.43416630846e-05
3.17137293705e-05
-5.65712674437e-05
3.22295967473e-05
-8.79835999975e-05
3.14123261264e-05
-0.000118792947921
3.08093420435e-05
-0.000148748608081
2.99556547438e-05
-0.000177561583309
2.88129702024e-05
-0.000205006077611
2.74444896429e-05
-0.000230929165003
2.59230830596e-05
-0.000255243375502
2.4314206454e-05
-0.000277914739631
2.26713603401e-05
-0.000298950492526
2.10357493211e-05
-0.000318387910869
1.94374149638e-05
-0.000336284827838
1.78969137462e-05
-0.000352711950951
1.64271200317e-05
-0.000367746893984
1.50349400628e-05
-0.000381469724796
1.37228279413e-05
-0.00039395978648
1.24900588872e-05
-0.000405293543475
1.13337542608e-05
-0.000415543223389
1.02496772263e-05
-0.000424776054908
9.23282886049e-06
-0.000433053937432
8.27787988651e-06
-0.000440433410359
7.37947028798e-06
-0.000446965819236
6.53240623473e-06
-0.000452697599372
5.73177746647e-06
-0.000457670615136
4.97301307019e-06
-0.00046192250703
4.25188915176e-06
-0.000465487020025
3.5645102164e-06
-0.000468394263181
2.90724030551e-06
-0.000470670715609
2.27644952335e-06
-0.000472338907676
1.66818907408e-06
-0.000473417461539
1.07855082579e-06
-0.000473920471058
5.03006397952e-07
-0.000473858498283
-6.19759219644e-08
-0.000473238365807
-6.20135698081e-07
-0.000472068971273
-1.16939777137e-06
-0.000470364760768
-1.70421381862e-06
-0.000468140144523
-2.22461956939e-06
-0.000465408027181
-2.73212074558e-06
-0.000462179291936
-3.22873865351e-06
-0.000458462643863
-3.7166515644e-06
-0.000454264582964
-4.19806439298e-06
-0.000449589436906
-4.67514964028e-06
-0.00044443943768
-5.15000280787e-06
-0.000438814846584
-5.62459477392e-06
-0.000432714137434
-6.10071282796e-06
-0.000426134248656
-6.57989255994e-06
-0.000419070910692
-7.0633417484e-06
-0.000411519050061
-7.55186452692e-06
-0.000403473262477
-8.04579148569e-06
-0.000394928338842
-8.54492765584e-06
-0.000385879816359
-9.04852651503e-06
-0.000376324517305
-9.55530321384e-06
-0.000366261026492
-1.00634949874e-05
-0.000355690050475
-1.05709803294e-05
-0.000344614593265
-1.10754615429e-05
-0.000333039880439
-1.15747173053e-05
-0.00032097296062
-1.20669243249e-05
-0.000308421916501
-1.25510487774e-05
-0.000295394621035
-1.30273001538e-05
-0.000281896985107
-1.34976407686e-05
-0.000267930649422
-1.3966340554e-05
-0.000253490087051
-1.44405673901e-05
-0.000238559122437
-1.49309696604e-05
-0.000223106920071
-1.54522075589e-05
-0.000207083564092
-1.60233612253e-05
-0.000190415582101
-1.66679873899e-05
-0.000173001939252
-1.74136484099e-05
-0.000154711496297
-1.82904487709e-05
-0.000135385504695
-1.93259977766e-05
-0.000114854983758
-2.05305275153e-05
-9.29850995232e-05
-2.18698913507e-05
-6.97360780662e-05
-2.32490285187e-05
-4.52398218714e-05
-2.44962638209e-05
-2.03597840094e-05
-2.4880053291e-05
-2.03597913529e-05
1.26459224503e-05
-3.63766727793e-05
1.15182684417e-05
-8.98704487691e-06
-7.90214980825e-06
1.58177321415e-05
-3.70568529585e-05
3.80768539839e-05
-6.5067023614e-05
4.91639632211e-05
-9.18661543565e-05
5.85128559446e-05
-0.000121441991998
6.18054302377e-05
-0.000152219633731
6.21899637973e-05
-0.000182764707381
6.13544116456e-05
-0.000212422659932
5.96136033673e-05
-0.000240809869989
5.72001764202e-05
-0.000267678476722
5.43130926856e-05
-0.000292878376057
5.11229788308e-05
-0.000316334308969
4.77701359388e-05
-0.000338027866287
4.43649143654e-05
-0.000357982370186
4.09902500315e-05
-0.000376250289446
3.77053311635e-05
-0.000392903063343
3.45496846482e-05
-0.000408023151962
3.15472057752e-05
-0.000421698052937
2.87098381861e-05
-0.000434015977477
2.60407497394e-05
-0.000445062871944
2.35369505987e-05
-0.000454920489109
2.11913687708e-05
-0.000463665252776
1.89944381868e-05
-0.000471367699591
1.69352730615e-05
-0.000478092327394
1.50025049866e-05
-0.00048389771619
1.31848564639e-05
-0.000488836823575
1.14715108744e-05
-0.000492957377781
9.85232900103e-06
-0.000496302315263
8.31794772094e-06
-0.000498910231998
6.85980312656e-06
-0.00050081582645
5.47010171974e-06
-0.000502050308769
4.14171973919e-06
-0.000502641630527
2.86776817681e-06
-0.000502614005263
1.64056077508e-06
-0.000501987551495
4.52093795532e-07
-0.000500786003847
-6.98544404742e-07
-0.000499042377649
-1.80560549405e-06
-0.000496793088515
-2.8694280795e-06
-0.00049406512721
-3.89736255063e-06
-0.00049087338547
-4.89595889236e-06
-0.000487228436784
-5.86957182497e-06
-0.000483138425101
-6.82213584853e-06
-0.000478609664443
-7.75750297527e-06
-0.000473646793109
-8.67952640343e-06
-0.000468252799873
-9.592061386e-06
-0.00046242902402
-1.04989290878e-05
-0.000456175177055
-1.14038536285e-05
-0.000449489405469
-1.23103700491e-05
-0.000442368415713
-1.32217065444e-05
-0.000434807669615
-1.41406424537e-05
-0.000426801663026
-1.50693524114e-05
-0.000418344285401
-1.60092460666e-05
-0.000409429259414
-1.69608216727e-05
-0.000400050641202
-1.79235499152e-05
-0.00039020336061
-1.88958114441e-05
-0.000379883761069
-1.98749069514e-05
-0.000369090097607
-2.08571629378e-05
-0.000357822933301
-2.18381489941e-05
-0.000346085376736
-2.28130227571e-05
-0.000333883090825
-2.37770077492e-05
-0.000321224011848
-2.47260081181e-05
-0.000308117712464
-2.56573528709e-05
-0.000294574356599
-2.65706609955e-05
-0.000280603199981
-2.74688022632e-05
-0.000266210609757
-2.83589358971e-05
-0.000251397570154
-2.92536120156e-05
-0.000236156693946
-3.01718511019e-05
-0.000220468829838
-3.11400768153e-05
-0.000204299279749
-3.21929166415e-05
-0.000187593872114
-3.33734003191e-05
-0.000170275394659
-3.47321313317e-05
-0.000152241202234
-3.63246467701e-05
-0.000133363988405
-3.82032174406e-05
-0.000113498399434
-4.03961225517e-05
-9.24962880466e-05
-4.28720088397e-05
-7.02529486959e-05
-4.5492374335e-05
-4.68970522226e-05
-4.78521671918e-05
-2.32205272108e-05
-4.85565851676e-05
-4.35803255501e-05
-8.78208895256e-06
-2.75945788808e-05
-3.04907179288e-05
1.27215796454e-05
-5.61180272027e-05
4.14450385901e-05
-7.99453572267e-05
6.19041813035e-05
-0.000106567930541
7.57865336373e-05
-0.000132981236852
8.4926159285e-05
-0.000160262642236
8.90868326618e-05
-0.000188000859369
8.99281779631e-05
-0.00021531331808
8.866686739e-05
-0.000241624177675
8.59244599815e-05
-0.000266584661962
8.21606577418e-05
-0.000289994981418
7.77234091906e-05
-0.000311757318154
7.288531265e-05
-0.000331845184874
6.78579997779e-05
-0.00035028148777
6.28012144208e-05
-0.000367121937936
5.7830697403e-05
-0.000382442432492
5.30258229591e-05
-0.000396329650957
4.84369003987e-05
-0.000408874287874
4.40918399994e-05
-0.000420166398168
4.00019458286e-05
-0.000430292377523
3.61667264486e-05
-0.000439333160408
3.25777308715e-05
-0.000447363290663
2.92214964001e-05
-0.000454450591498
2.6081736419e-05
-0.000460656229959
2.31409088849e-05
-0.000466035027311
2.03812997105e-05
-0.000470635909489
1.77857359543e-05
-0.00047450242409
1.53380227825e-05
-0.000477673277241
1.30231793737e-05
-0.000480182873532
1.08275412164e-05
-0.000482061841153
8.73876784705e-06
-0.000483337496433
6.74575407119e-06
-0.000484034169988
4.83839023479e-06
-0.000484173531362
3.00712644699e-06
-0.000483775469116
1.24249529925e-06
-0.000482860030207
-4.63348351468e-07
-0.000481452711897
-2.10586605634e-06
-0.00047957256875
-3.685751968e-06
-0.000477227906208
-5.21409405362e-06
-0.000474428478333
-6.69679383925e-06
-0.000471184374341
-8.14006640629e-06
-0.000467504463214
-9.54948645051e-06
-0.000463396166791
-1.09304358824e-05
-0.00045886540791
-1.22882654418e-05
-0.000453916572422
-1.3628365593e-05
-0.000448552464389
-1.49561730952e-05
-0.00044277426969
-1.62771275851e-05
-0.000436581546991
-1.75965801029e-05
-0.000429972266213
-1.89196547292e-05
-0.000422942911821
-2.02510648211e-05
-0.000415488667278
-2.15948910168e-05
-0.00040760369155
-2.29543321476e-05
-0.00039928149385
-2.43314479196e-05
-0.000390515403077
-2.57269165961e-05
-0.000381299119691
-2.71398376038e-05
-0.000371627324715
-2.85676107305e-05
-0.00036149631038
-3.00059257564e-05
-0.000350904584508
-3.14488932942e-05
-0.000339853391563
-3.2889346587e-05
-0.000328347084688
-3.43193342964e-05
-0.000316393281911
-3.57308153509e-05
-0.000304002738534
-3.71165563321e-05
-0.000291188876838
-3.847121955e-05
-0.000277966916227
-3.9792626592e-05
-0.000264352568068
-4.10831555328e-05
-0.000250360287108
-4.23512219539e-05
-0.000236001047974
-4.36128563435e-05
-0.000221279612249
-4.48932919923e-05
-0.000206191561796
-4.62281325005e-05
-0.000190719855635
-4.7664628007e-05
-0.000174831083045
-4.92621781605e-05
-0.000158472010238
-5.10912094113e-05
-0.000141566461324
-5.32302010335e-05
-0.00012401270787
-5.57569763788e-05
-0.000105681773124
-5.87270629043e-05
-8.64228502066e-05
-6.21309375332e-05
-6.60976322801e-05
-6.58175975156e-05
-4.46627582732e-05
-6.92870461227e-05
-2.23959941066e-05
-7.08233583191e-05
-6.597632204e-05
-2.76629085177e-05
6.83022470227e-08
-5.49284729898e-05
3.99871387736e-05
-8.0253961092e-05
6.67705243333e-05
-0.000105447413634
8.70976316072e-05
-0.000130949887365
0.000101289005052
-0.000156173742143
0.000110150011766
-0.000181238769457
0.000114151857714
-0.000205908307162
0.000114597713417
-0.000229765291847
0.000112523849798
-0.000252492420466
0.000108651586292
-0.000273887090761
0.000103555325685
-0.000293845632641
9.76819486886e-05
-0.000312337716966
9.13773945627e-05
-0.00032938302968
8.49033100623e-05
-0.000345032791634
7.84509739319e-05
-0.000359355984619
7.21538879355e-05
-0.000372429605262
6.60994411488e-05
-0.000384332155182
6.03394478577e-05
-0.000395139594221
5.48992765815e-05
-0.000404923066532
4.97854156713e-05
-0.000413747829931
4.49914873827e-05
-0.000421672952127
4.05028505836e-05
-0.000428751461194
3.63000029815e-05
-0.000435030740653
3.23610133593e-05
-0.000440553036605
2.8663202307e-05
-0.000445355999593
2.51842601185e-05
-0.000449473217859
2.19029516128e-05
-0.000452934718308
1.87995205533e-05
-0.000455767426017
1.58558843615e-05
-0.000457995592137
1.30557045265e-05
-0.000459641215251
1.03843880953e-05
-0.00046072438942
7.82892526507e-06
-0.000461263339319
5.37733708649e-06
-0.000461274530922
3.01831488648e-06
-0.000460775344857
7.43306009591e-07
-0.00045978723785
-1.45145866114e-06
-0.000458325940726
-3.56716648996e-06
-0.000456401704416
-5.60999165741e-06
-0.000454026910751
-7.58889110657e-06
-0.000451212432646
-9.51127540784e-06
-0.000447968226358
-1.13842761653e-05
-0.000444303025853
-1.32146905036e-05
-0.00044022425387
-1.50092114222e-05
-0.000435737945649
-1.67745773017e-05
-0.000430848663529
-1.85176513603e-05
-0.000425559406597
-2.02454337644e-05
-0.000419871530091
-2.19650078404e-05
-0.000413784694615
-2.36834194251e-05
-0.000407296865617
-2.5407487594e-05
-0.000400404385399
-2.71435490105e-05
-0.000393102137251
-2.88971431669e-05
-0.000385383819068
-3.06726544488e-05
-0.000377242336219
-3.24729349297e-05
-0.000368670315553
-3.42989415514e-05
-0.000359660729597
-3.61494279035e-05
-0.000350207607636
-3.80207371743e-05
-0.000340306795132
-3.99067428048e-05
-0.00032995671283
-4.17989802837e-05
-0.000319159051945
-4.36870122178e-05
-0.000307919333269
-4.55590578541e-05
-0.000296247258114
-4.74028954339e-05
-0.000284156774975
-4.92070445135e-05
-0.00027166580654
-5.09621930544e-05
-0.000258795574732
-5.2662863557e-05
-0.000245569481834
-5.43092535906e-05
-0.000232011569396
-5.5909139606e-05
-0.000218144587877
-5.74798430553e-05
-0.000203987309345
-5.90505757398e-05
-0.00018955202417
-6.06634228564e-05
-0.000174841376036
-6.23752813178e-05
-0.000159844519503
-6.4259039849e-05
-0.000144533864353
-6.64018697013e-05
-0.00012886125341
-6.89028171547e-05
-0.0001127523868
-7.18658482236e-05
-9.60993130073e-05
-7.53801420079e-05
-7.87567012853e-05
-7.94735543656e-05
-6.05551793549e-05
-8.40191247361e-05
-4.12798880484e-05
-8.85623432574e-05
-2.08824385667e-05
-9.12208109953e-05
-8.6858765056e-05
-3.62266437843e-05
3.62949590615e-05
-6.50501687501e-05
6.88106639487e-05
-9.22255820827e-05
9.39459360377e-05
-0.00011823072969
0.000113102777203
-0.000143186826308
0.000126245099624
-0.000167078052235
0.00013404123573
-0.000190064286063
0.000137138089656
-0.000212090690602
0.000136624116113
-0.000233014809559
0.000133447966913
-0.000252731165917
0.000128367940778
-0.000271183519812
0.000122007677667
-0.000288363146011
0.000114861572923
-0.000304296863434
0.000107311109974
-0.00031903366412
9.96401086899e-05
-0.00033263355733
9.2050865043e-05
-0.000345159671307
8.46799997771e-05
-0.000356673399043
7.76131667171e-05
-0.000367231887242
7.08979338616e-05
-0.000376887096112
6.45544832257e-05
-0.000385685777589
5.85840949e-05
-0.000393669902349
5.29756098631e-05
-0.000400877240516
4.77101864478e-05
-0.000407341937566
4.27646976924e-05
-0.000413095017416
3.81140908404e-05
-0.000418164797475
3.37329799476e-05
-0.000422577226075
2.95966862585e-05
-0.000426356161971
2.56818849811e-05
-0.000429523614356
2.19669703515e-05
-0.000432099954681
1.84322220126e-05
-0.000434104123833
1.50598709313e-05
-0.000435553853781
1.18341151967e-05
-0.000436465897359
8.74096590383e-06
-0.000436856082596
5.76751925481e-06
-0.000436738825054
2.90105417845e-06
-0.000436127235516
1.31713229487e-07
-0.000435042838416
-2.53585902813e-06
-0.000433504524142
-5.10548408073e-06
-0.000431521049873
-7.59346926357e-06
-0.000429103051399
-1.00068929706e-05
-0.000426260757219
-1.23535730005e-05
-0.000423003797605
-1.46412392491e-05
-0.00041934091461
-1.68775769946e-05
-0.000415279774371
-1.90703552193e-05
-0.000410826806103
-2.12275491581e-05
-0.000405987045059
-2.33574160632e-05
-0.000400763976847
-2.54685056714e-05
-0.00039515939425
-2.75695942119e-05
-0.000389173284883
-2.96695326133e-05
-0.00038280377352
-3.17770028697e-05
-0.000376047145238
-3.3900181266e-05
-0.000368897976414
-3.60463160708e-05
-0.000361349397224
-3.8221237796e-05
-0.000353393503414
-4.04288330202e-05
-0.000345021923861
-4.26705254766e-05
-0.000336226537535
-4.49448187393e-05
-0.000327000316186
-4.72469631333e-05
-0.000317338250594
-4.95688131474e-05
-0.000307238307863
-5.18989278577e-05
-0.000296702350692
-5.42229743573e-05
-0.000285736925006
-5.65244885788e-05
-0.000274353848221
-5.87859773535e-05
-0.000262570489389
-6.09904085171e-05
-0.000250409705675
-6.31229819988e-05
-0.000237899353347
-6.51732211226e-05
-0.00022507132684
-6.71372853567e-05
-0.000211960080317
-6.90203913714e-05
-0.000198601174172
-7.08387544292e-05
-0.000185028083565
-7.26236715477e-05
-0.000171270308306
-7.44212032825e-05
-0.000157350592376
-7.62950023883e-05
-0.000143280365069
-7.83292722507e-05
-0.000129056921002
-8.06253188554e-05
-0.000114659769686
-8.32999735317e-05
-0.000100043370464
-8.6482252543e-05
-8.51263521022e-05
-9.02971654897e-05
-6.97778017751e-05
-9.48221098847e-05
-5.38203630186e-05
-9.9976568001e-05
-3.69464161169e-05
-0.000105436293758
-1.88589352727e-05
-0.00010930829899
-0.000105717701503
-3.59500558329e-05
7.22450009946e-05
-6.7690597324e-05
0.000100551202267
-9.62872272725e-05
0.000122542564032
-0.000122597155533
0.000139412703638
-0.000146973149505
0.000150621091865
-0.000169641616735
0.000156709701334
-0.000190862335809
0.000158358807197
-0.000210754386298
0.000156516165116
-0.000229366916471
0.000152060495606
-0.000246744952719
0.00014574597552
-0.000262940471729
0.000138203195127
-0.000278013845585
0.000129934945174
-0.000292029155584
0.00012132641831
-0.000305048958299
0.000112659909684
-0.000317130576773
0.000104132481739
-0.000328324407307
9.58738284807e-05
-0.000338673857404
8.79626149339e-05
-0.000348216249374
8.04403239034e-05
-0.000356984087655
7.33223195346e-05
-0.000365006285426
6.66062906541e-05
-0.000372309148328
6.02784707056e-05
-0.000378917062905
5.43180989205e-05
-0.000384852922531
4.87005551686e-05
-0.000390138360539
4.33995266462e-05
-0.000394793863577
3.83884807287e-05
-0.000398838823088
3.36416434446e-05
-0.000402291566569
2.91346260644e-05
-0.000405169398205
2.48447995012e-05
-0.000407488674777
2.07514960102e-05
-0.000409264894671
1.68360881479e-05
-0.000410512778545
1.30819962863e-05
-0.000411246354878
9.47453932106e-06
-0.000411479239752
6.00040109833e-06
-0.000411225687312
2.64749858945e-06
-0.000410502247145
-5.91730164591e-07
-0.000409322117987
-3.715991439e-06
-0.000407696199803
-6.73140553797e-06
-0.000405637311038
-9.65236133818e-06
-0.000403156778872
-1.24874284752e-05
-0.000400265206193
-1.52451490614e-05
-0.000396972563812
-1.79338850475e-05
-0.000393288090977
-2.05620532975e-05
-0.00038922013085
-2.31383188562e-05
-0.000384775933126
-2.56717504507e-05
-0.00037996143593
-2.81719168801e-05
-0.00037478103768
-3.06489076126e-05
-0.000369237374551
-3.3113261099e-05
-0.000363331125856
-3.55757851518e-05
-0.000357060876004
-3.80472566506e-05
-0.000350423066985
-4.05379943187e-05
-0.000343412077466
-4.3057309731e-05
-0.000336020462647
-4.56128568839e-05
-0.000328239382593
-4.82099174691e-05
-0.000320059233586
-5.08506790236e-05
-0.000311470479707
-5.35335772906e-05
-0.000302464664595
-5.62527830678e-05
-0.000293035549388
-5.89979332971e-05
-0.000283180319157
-6.17541631597e-05
-0.000272900794791
-6.45025038811e-05
-0.000262204491223
-6.72207973876e-05
-0.000251105507112
-6.98849667494e-05
-0.000239625030165
-7.2470890783e-05
-0.000227791506319
-7.49565111727e-05
-0.000215640304926
-7.73244278359e-05
-0.000203212989402
-7.95646061912e-05
-0.000190555430021
-8.16779560298e-05
-0.000177717592778
-8.36765969233e-05
-0.000164748581124
-8.55926884248e-05
-0.000151695514818
-8.74742747667e-05
-0.000138601729766
-8.93887926038e-05
-0.000125500236843
-9.14307702887e-05
-0.000112410873865
-9.37146869365e-05
-9.93381467819e-05
-9.63727056792e-05
-8.62630370683e-05
-9.95573673308e-05
-7.31313015531e-05
-0.000103428906015
-5.98312927392e-05
-0.000108122123412
-4.61927877544e-05
-0.000113615077788
-3.18967660084e-05
-0.000119732320679
-1.64520980059e-05
-0.000124752968755
-0.000122169802626
-3.47384261541e-05
0.000106983439522
-6.67660462805e-05
0.000132578824567
-9.55979793518e-05
0.000151374496738
-0.000121631257214
0.000165445980415
-0.000145239146154
0.000174228979559
-0.000166754703527
0.000178225257478
-0.000186495930064
0.000178100032545
-0.00020469286719
0.000174713101082
-0.0002215174022
0.000168885029452
-0.0002371126012
0.000161341173329
-0.000251599826657
0.000152690419353
-0.000265081589977
0.00014341670721
-0.00027764204791
0.000133886874902
-0.000289348059646
0.000124365920018
-0.000300251372923
0.000115035793554
-0.000310391641261
0.000106014095295
-0.000319799652771
9.73706248618e-05
-0.000328500230567
8.91409000589e-05
-0.000336514500943
8.13365882132e-05
-0.000343861457168
7.39532451268e-05
-0.000350558902341
6.69759140702e-05
-0.000356623925823
6.03831205374e-05
-0.000362073076531
5.41497039511e-05
-0.000366922370689
4.8248818815e-05
-0.000371187233547
4.26533415232e-05
-0.000374882436544
3.73368442988e-05
-0.000378022061961
3.22742492445e-05
-0.000380619513198
2.74422483998e-05
-0.000382687578516
2.2819558877e-05
-0.000384238531308
1.83870383733e-05
-0.000385284177928
1.41276402093e-05
-0.000385835869784
1.00262283408e-05
-0.000385905023177
6.06955147255e-06
-0.000385504534343
2.24700663845e-06
-0.000384648481516
-1.44778615804e-06
-0.00038334777999
-5.01669615579e-06
-0.000381611993394
-8.46719535131e-06
-0.00037945310597
-1.18112520049e-05
-0.000376882293641
-1.50582440841e-05
-0.000373910460888
-1.82169851296e-05
-0.000370548218687
-2.12961306083e-05
-0.000366805742205
-2.43045331839e-05
-0.000362692556953
-2.72515075699e-05
-0.000358217279473
-3.01470314497e-05
-0.00035338732384
-3.30018761046e-05
-0.000348208584934
-3.58276501845e-05
-0.000342685115618
-3.86367341732e-05
-0.000336818823648
-4.14420809808e-05
-0.000330609223685
-4.42568605885e-05
-0.000324053288585
-4.70939335212e-05
-0.000317145449649
-4.99651529144e-05
-0.000309877793735
-5.28805171957e-05
-0.000302240500033
-5.58472157344e-05
-0.000294222542905
-5.88686408725e-05
-0.000285812658752
-6.19434663322e-05
-0.000277000570267
-6.50648765804e-05
-0.000267778391656
-6.82201170739e-05
-0.000258142125579
-7.13904344973e-05
-0.000248093281586
-7.45513532138e-05
-0.000237640217378
-7.76738669767e-05
-0.000226799448838
-8.07257406848e-05
-0.000215596356935
-8.36739880857e-05
-0.000204065684636
-8.64871888475e-05
-0.000192251186064
-8.91389317786e-05
-0.000180205669599
-9.16101279967e-05
-0.000167987317069
-9.38963138796e-05
-0.000155662929453
-9.60009898649e-05
-0.000143299016328
-9.79566068188e-05
-0.0001309611743
-9.98121221126e-05
-0.000118714877858
-0.000101635094294
-0.000106616211488
-0.000103529441956
-9.47065167579e-05
-0.000105624386867
-8.30130866676e-05
-0.000108066140958
-7.15406266669e-05
-0.000111029832403
-6.02594043314e-05
-0.000114710133347
-4.90810425786e-05
-0.000119300490047
-3.7840639719e-05
-0.00012485548468
-2.62649699352e-05
-0.000131307993261
-1.37295478806e-05
-0.000137288396357
-0.00013589935103
-3.32297914546e-05
0.000140213226051
-6.42082162756e-05
0.000163557249256
-9.2267658979e-05
0.000179433939261
-0.000117474284113
0.00019065260501
-0.000140101727217
0.000196856421949
-0.0001604793849
0.00019860291439
-0.00017893829005
0.000196558936913
-0.000195761069837
0.000191535880076
-0.000211183635679
0.000184307594477
-0.000225402249589
0.00017555978639
-0.000238575306218
0.000165863475086
-0.00025082637767
0.000155667777714
-0.000262248199742
0.000145308695967
-0.000272907996788
0.000135025715998
-0.000282853422198
0.000124981217834
-0.0002921182582
0.000115278930103
-0.000300727216368
0.000105979581772
-0.000308699537397
9.71132197639e-05
-0.000316051404326
8.86884537546e-05
-0.000322797375659
8.06992150071e-05
-0.000328951114627
7.31296515193e-05
-0.000334525676772
6.59576810969e-05
-0.000339533562983
5.91575885056e-05
-0.000343986680141
5.27019342394e-05
-0.000347896294228
4.65629537898e-05
-0.000351273017768
4.07135659204e-05
-0.000354126842983
3.51280724315e-05
-0.000356467220166
2.97826234321e-05
-0.000358303183995
2.46555204264e-05
-0.000359643509438
1.97273613992e-05
-0.000360496788006
1.49809162039e-05
-0.00036087136537
1.04008029402e-05
-0.000360775799366
5.97398257632e-06
-0.000360220498898
1.69170311858e-06
-0.000359217029465
-2.45125868912e-06
-0.000357775823566
-6.45790515819e-06
-0.000355905986075
-1.03370359643e-05
-0.000353618031538
-1.40992096908e-05
-0.000350922987587
-1.77532912187e-05
-0.000347832278287
-2.13076976533e-05
-0.000344357518101
-2.47708940655e-05
-0.000340510271771
-2.81517828379e-05
-0.000336301771231
-3.14600114986e-05
-0.000331742586337
-3.47062198057e-05
-0.000326842248002
-3.7902217986e-05
-0.000321608828866
-4.10610729647e-05
-0.000316048497505
-4.41970692937e-05
-0.000310165075495
-4.73255068789e-05
-0.000303959640746
-5.04622993743e-05
-0.000297430234898
-5.36233435663e-05
-0.0002905717449
-5.6823647285e-05
-0.000283376025041
-6.00762416128e-05
-0.00027583232223
-6.33909232844e-05
-0.000267928058
-6.67729100247e-05
-0.000259649943687
-7.02215857247e-05
-0.000250985463469
-7.37293620234e-05
-0.000241924633961
-7.72809519128e-05
-0.000232461762298
-8.08533115635e-05
-0.000222597716629
-8.4415404333e-05
-0.000212341433262
-8.79301557912e-05
-0.000201711922161
-9.13552572409e-05
-0.000190738998279
-9.46469173978e-05
-0.000179464451765
-9.77617407781e-05
-0.000167940932811
-0.000100662456167
-0.00015623454616
-0.000103316520064
-0.000144415983638
-0.000105714881893
-0.000132571514933
-0.000107845464044
-0.000120787831983
-0.000109740295317
-0.000109150462622
-0.000111449496987
-9.77481886877e-05
-0.000113037373765
-8.66646478176e-05
-0.000114612988332
-7.59648462603e-05
-0.000116324193898
-6.56982357295e-05
-0.000118332756838
-5.58923905986e-05
-0.000120835682705
-4.65380624254e-05
-0.000124064466354
-3.7574715471e-05
-0.000128263841351
-2.88342502685e-05
-0.000133595954126
-2.01117893867e-05
-0.000140030458297
-1.07188783314e-05
-0.000146681308203
-0.000146618231301
-3.13033378887e-05
0.000171516575744
-6.0727061279e-05
0.00019298097649
-8.74828167614e-05
0.000206189696095
-0.000111506756649
0.000214676545264
-0.000132992764798
0.000218342430053
-0.000152229778428
0.000217839927795
-0.000169533112482
0.00021386227065
-0.000185197747774
0.000207200514992
-0.000199482027605
0.000198591873879
-0.00021260211977
0.000188679878074
-0.00022472983113
0.000177991185912
-0.00023599546382
0.000166933409815
-0.00024649371159
0.00015580694309
-0.000256291202045
0.000144823205745
-0.000265434109564
0.000134124124582
-0.000273954745501
0.000123799565204
-0.000281876600518
0.000113901435886
-0.000289217802347
0.000104454420622
-0.000295993247739
9.54638981072e-05
-0.000302215777452
8.69217436098e-05
-0.000307896747911
7.88106207969e-05
-0.000313046277339
7.11072092682e-05
-0.000317673354598
6.37846644273e-05
-0.000321785920726
5.68144989414e-05
-0.000325390975929
5.01680074661e-05
-0.000328494728675
4.38173170258e-05
-0.000331102779355
3.77361213416e-05
-0.000333220321676
3.1900163841e-05
-0.000334852354638
2.62875513276e-05
-0.00033600391241
2.08789169514e-05
-0.000336680247339
1.56572487274e-05
-0.000336886682547
1.06072355424e-05
-0.000336628380601
5.71567777498e-06
-0.000335912486721
9.75806325598e-07
-0.000334749905975
-3.61384238509e-06
-0.000333150789133
-8.05702496574e-06
-0.00033112254359
-1.23652844929e-05
-0.000328674957604
-1.65467986925e-05
-0.000325819228613
-2.06090232616e-05
-0.00032256758435
-2.45593450164e-05
-0.000318932946441
-2.84055351274e-05
-0.000314928621103
-3.21561113965e-05
-0.000310567967251
-3.58206686467e-05
-0.000305864012894
-3.94101775515e-05
-0.000300829002328
-4.29372320477e-05
-0.000295473869765
-4.64162091503e-05
-0.000289807651482
-4.98632913409e-05
-0.000283836868708
-5.32962935835e-05
-0.000277564934514
-5.67342376796e-05
-0.000270991658108
-6.01966242781e-05
-0.000264112950021
-6.37023598822e-05
-0.000256920821731
-6.72683746118e-05
-0.000249403755399
-7.09079945228e-05
-0.000241547582103
-7.46290883965e-05
-0.000233336745747
-7.84324273068e-05
-0.000224756062995
-8.23100501169e-05
-0.00021579305613
-8.62439641863e-05
-0.000206439666804
-9.02067063543e-05
-0.000196695813924
-9.4159262676e-05
-0.000186570563842
-9.8055411352e-05
-0.000176085518954
-0.000101840307614
-0.000165274919586
-0.000105457522244
-0.000154188582558
-0.000108848083383
-0.000142887784095
-0.000111963260222
-0.000131454507271
-0.000114749802665
-0.000119971665112
-0.000117197729887
-0.00010854650305
-0.000119270632052
-9.72892137505e-05
-0.000120997590571
-8.63094777542e-05
-0.000122429238862
-7.57180857277e-05
-0.000123628771693
-6.56322565212e-05
-0.000124698823279
-5.61471398566e-05
-0.000125809316166
-4.73354114297e-05
-0.000127144490514
-3.92500699226e-05
-0.000128921029054
-3.190097781e-05
-0.000131413562922
-2.52569911554e-05
-0.000134907832008
-1.91487405281e-05
-0.000139704207704
-1.34270647527e-05
-0.000145752135868
-7.40841057999e-06
-0.000152699965944
-0.000154026641833
-2.9120773007e-05
0.000200637347095
-5.67405113568e-05
0.000220600716589
-8.19396835439e-05
0.00023138886975
-0.000104595354166
0.000237332216801
-0.000124849355079
0.000238596431503
-0.000142948222578
0.000235938795604
-0.000159179473436
0.000230093521677
-0.000173827096559
0.000221848138187
-0.000187146303335
0.000211911080648
-0.000199351932218
0.000200885506884
-0.000210614249084
0.000189253502643
-0.000221061687353
0.000177380847889
-0.000230787450311
0.000165532705794
-0.000239857618882
0.000153893374003
-0.000248318853482
0.000142585358805
-0.000256204644327
0.000131685355608
-0.000263539802409
0.00012123659346
-0.000270343369777
0.000111257987412
-0.000276630344081
0.000101750871762
-0.000282412635994
9.27040348015e-05
-0.000287699601463
8.40975854682e-05
-0.000292498384088
7.59059910168e-05
-0.000296814205354
6.81004847267e-05
-0.000300650667499
6.06509600223e-05
-0.000304010087355
5.35274261436e-05
-0.00030689385568
4.67010840415e-05
-0.000309302804057
4.01450682612e-05
-0.000311237552972
3.38349111399e-05
-0.000312698825504
2.77488220733e-05
-0.000313687734852
2.18678243254e-05
-0.000314206091847
1.61756035222e-05
-0.000314256472822
1.06576140692e-05
-0.000313840875654
5.30007800655e-06
-0.000312958544379
9.3472261277e-08
-0.000311623344537
-4.94904500552e-06
-0.000309849433854
-9.83093842897e-06
-0.000307640062899
-1.45746582513e-05
-0.000305004433132
-1.91824312927e-05
-0.000301954083242
-2.36593760326e-05
-0.000298502134183
-2.80112970093e-05
-0.000294662852507
-3.22448198078e-05
-0.000290451332077
-3.63676349103e-05
-0.0002858831675
-4.03888364081e-05
-0.000280974059661
-4.43192886899e-05
-0.00027573931768
-4.8171977466e-05
-0.000270193239726
-5.19622906983e-05
-0.000264348375839
-5.57081590035e-05
-0.000258214705556
-5.94299678378e-05
-0.000251798796777
-6.31501506433e-05
-0.00024510302866
-6.68923968001e-05
-0.000238125036888
-7.06803562699e-05
-0.000230857536051
-7.45358802715e-05
-0.000223288530789
-7.84770047844e-05
-0.000215402337531
-8.25152868034e-05
-0.000207181007887
-8.6653762224e-05
-0.000198606221509
-9.08848418343e-05
-0.000189662894423
-9.51872966818e-05
-0.000180339694568
-9.95299116381e-05
-0.000170635535492
-0.000103863427206
-0.00016055892599
-0.000108132026378
-0.000150134367845
-0.000112264871313
-0.000139400039101
-0.000116191856708
-0.000128415194069
-0.000119832934265
-0.000117248567157
-0.00012312989316