/*--------------------------------*- C++ -*----------------------------------*\
| =========                 |                                                 |
| \\      /  F ield         | OpenFOAM: The Open Source CFD Toolbox           |
|  \\    /   O peration     | Version:  v1806                                 |
|   \\  /    A nd           | Web:      www.OpenFOAM.com                      |
|    \\/     M anipulation  |                                                 |
\*---------------------------------------------------------------------------*/
FoamFile
{
    version     2.0;
    format      ascii;
    class       surfaceScalarField;
    location    "400";
    object      phi;
}
// * * * * * * * * * * * * * * * * * * * * * * * * * * * * * * * * * * * * * //

dimensions      [0 3 -1 0 0 0 0];
oriented        oriented;


internalField   nonuniform List<scalar> 
12640
(
1.36427984054e-05
-1.36429350911e-05
2.05833270333e-05
-6.94069388444e-06
2.56360192365e-05
-5.05290672386e-06
2.07050353844e-05
4.93079643575e-06
5.6615688899e-06
1.50432449698e-05
-2.08412793843e-05
2.65025886173e-05
-5.08587742561e-05
3.00172896914e-05
-8.11455435164e-05
3.02866008396e-05
-0.000111249922501
3.01042239773e-05
-0.000140731627551
2.94815658211e-05
-0.000169211276597
2.84795225038e-05
-0.000196407916396
2.71965263294e-05
-0.00022213072123
2.57227024955e-05
-0.000246265225207
2.41344110709e-05
-0.00026875862739
2.2493317351e-05
-0.000289605994672
2.08472883706e-05
-0.000308838040923
1.92319724631e-05
-0.000326510746041
1.7672634445e-05
-0.00034269684231
1.61860283066e-05
-0.000357479063997
1.47821547577e-05
-0.000370944955942
1.34658258904e-05
-0.000383183015189
1.22379927689e-05
-0.000394279913194
1.10968310889e-05
-0.000404318581179
1.00385997069e-05
-0.000413376948921
9.05829815031e-06
-0.000421527179392
8.15015898674e-06
-0.000428835255198
7.30800247242e-06
-0.000435360825289
6.52549465899e-06
-0.000441157219874
5.79631703657e-06
-0.00044627159011
5.11429065416e-06
-0.00045074511031
4.47343852594e-06
-0.000454613225385
3.86803170002e-06
-0.000457905930023
3.29261943298e-06
-0.000460648011294
2.74199483711e-06
-0.000462859134008
2.21103462067e-06
-0.000464553700218
1.69447749445e-06
-0.00046574096357
1.18717359349e-06
-0.000466425339895
6.84286976112e-07
-0.000466607139984
1.81710430812e-07
-0.00046628269361
-3.24534639387e-07
-0.000465446967316
-8.35814342299e-07
-0.000464098079558
-1.34897375221e-06
-0.000462236167232
-1.86199784533e-06
-0.00045986088753
-2.37536269046e-06
-0.000456970831793
-2.89013814488e-06
-0.000453563405322
-3.40750601932e-06
-0.000449634872036
-3.92861228677e-06
-0.000445180448211
-4.45449977786e-06
-0.000440194433241
-4.98609053195e-06
-0.000434670372649
-5.52413305035e-06
-0.000428601281579
-6.06916340451e-06
-0.000421979928115
-6.62142274978e-06
-0.000414799200184
-7.18079743077e-06
-0.000407052536274
-7.74673048171e-06
-0.000398734424954
-8.31817845101e-06
-0.000389840924991
-8.89356429991e-06
-0.000380370187596
-9.47080258613e-06
-0.000370322904355
-1.00473457318e-05
-0.00035970264187
-1.06203260372e-05
-0.000348515966144
-1.11867366142e-05
-0.00033677230612
-1.17437220921e-05
-0.00032448345609
-1.22889094301e-05
-0.000311662675363
-1.28208413876e-05
-0.000298323297583
-1.33394358268e-05
-0.000284476825569
-1.38465315163e-05
-0.00027013042521
-1.43464575558e-05
-0.000255283832658
-1.48466516603e-05
-0.000239925665779
-1.53582243415e-05
-0.000224029265107
-1.58964606324e-05
-0.000207548239172
-1.64810851737e-05
-0.000190412140301
-1.71361608126e-05
-0.000172522832606
-1.78893694284e-05
-0.000153752790121
-1.87701069914e-05
-0.000133949833428
-1.98030204167e-05
-0.000112959342553
-2.09905611514e-05
-9.06758652575e-05
-2.22835467063e-05
-6.71130503803e-05
-2.35628902637e-05
-4.25074252389e-05
-2.4605713607e-05
-1.80563018811e-05
-2.44512218665e-05
-1.80563827842e-05
1.02222849055e-05
-2.38656691279e-05
1.08418711754e-05
-7.56068094753e-06
-5.78940432847e-06
1.15781114598e-05
-3.32939728907e-05
3.24351776812e-05
-6.17065220632e-05
4.34556662345e-05
-8.8469558723e-05
5.3265527255e-05
-0.000116952550946
5.85001861654e-05
-0.0001468038209
6.01377815155e-05
-0.000176730035388
6.00303461693e-05
-0.000205983776828
5.87352207931e-05
-0.00023410345029
5.65991098691e-05
-0.000260785743954
5.38787406284e-05
-0.000285840943272
5.07778245599e-05
-0.000309165540657
4.74589368847e-05
-0.000330721693517
4.40494006788e-05
-0.000350520487486
4.06460165226e-05
-0.000368608157155
3.73195776071e-05
-0.00038505488095
3.41192953516e-05
-0.000399945900722
3.1076985643e-05
-0.000413374673243
2.82108646222e-05
-0.000425437751026
2.55288407972e-05
-0.000436231083834
2.30312609562e-05
-0.00044584743915
2.07131211473e-05
-0.000454374697567
1.85657899479e-05
-0.000461894783232
1.65783148573e-05
-0.000468483076374
1.47383793833e-05
-0.00047420814377
1.30329964403e-05
-0.000479131707502
1.14489805593e-05
-0.000483308763544
9.97329488615e-06
-0.000486787814343
8.59325849168e-06
-0.000489611141689
7.29668311386e-06
-0.000491815147702
6.07195008941e-06
-0.000493430652753
4.90803782476e-06
-0.000494483352125
3.79460262948e-06
-0.000494994054666
2.72164736144e-06
-0.000494978506181
1.67883442668e-06
-0.000494447538095
6.56113901376e-07
-0.000493409975999
-3.53370716556e-07
-0.000491882633462
-1.34572319944e-06
-0.000489887348586
-2.31991414315e-06
-0.000487439311946
-3.28394016461e-06
-0.000484544495449
-4.24388276157e-06
-0.000481202370712
-5.20420893207e-06
-0.000477409857563
-6.16796544096e-06
-0.000473162433877
-7.13764474946e-06
-0.000468454598314
-8.11542779274e-06
-0.000463280027501
-9.10326229341e-06
-0.000457631705131
-1.01029047777e-05
-0.000451501986632
-1.11158844926e-05
-0.000444882746441
-1.21434523753e-05
-0.00043776552408
-1.31864577378e-05
-0.000430141798778
-1.42452239951e-05
-0.000422003290101
-1.53193750162e-05
-0.000413342397865
-1.64076959077e-05
-0.000404152654884
-1.75079877679e-05
-0.000394429282226
-1.86170078284e-05
-0.000384169692903
-1.97304560995e-05
-0.000373374008141
-2.08430993531e-05
-0.00036204540882
-2.19489876593e-05
-0.000350190367901
-2.30418444906e-05
-0.000337818579615
-2.41155708472e-05
-0.000324942629315
-2.51649247088e-05
-0.000311577229775
-2.61862995053e-05
-0.000297738077774
-2.71786507391e-05
-0.000283440174115
-2.81444919838e-05
-0.000268695695859
-2.90909969107e-05
-0.000253511298992
-3.00311041821e-05
-0.000237885030146
-3.09845531739e-05
-0.000221802791742
-3.19787545227e-05
-0.000205234479835
-3.30494566456e-05
-0.000188130131556
-3.42405651419e-05
-0.000170416695546
-3.56028640923e-05
-0.000151996430181
-3.71904279311e-05
-0.000132749410809
-3.9050096899e-05
-0.000112542744532
-4.11972815832e-05
-9.12507253553e-05
-4.35756243234e-05
-6.88185728696e-05
-4.5995097042e-05
-4.54938422385e-05
-4.79304965425e-05
-2.22419031848e-05
-4.7703238922e-05
-4.02982956974e-05
-4.67906543252e-06
-1.91865984789e-05
-2.37615565103e-05
1.15216066065e-05
-5.06961843198e-05
3.85126216527e-05
-7.51686750053e-05
5.6907585011e-05
-0.000102265471072
7.05523913532e-05
-0.000129230149293
8.02301412537e-05
-0.00015637749261
8.56474717734e-05
-0.000183769529326
8.75297613737e-05
-0.000210763933108
8.70246940335e-05
-0.000236831694253
8.48029242806e-05
-0.000261610759909
8.13781182851e-05
-0.000284874705036
7.71426275884e-05
-0.000306500467956
7.24035301361e-05
-0.000326441825029
6.74002362521e-05
-0.000344708198452
6.23157169838e-05
-0.000361347699474
5.72854599882e-05
-0.000376433750498
5.24055709546e-05
-0.000390054804792
4.77402911053e-05
-0.000402306700365
4.33288216758e-05
-0.000413287186118
3.9191289452e-05
-0.000423092168022
3.53337599375e-05
-0.000431813265892
3.17522942331e-05
-0.000439536332281
2.84361204082e-05
-0.000446340646249
2.5370034666e-05
-0.000452298567844
2.25361641569e-05
-0.000457475490303
1.99152273051e-05
-0.000461929979436
1.74874076604e-05
-0.000465714031171
1.523295219e-05
-0.000468873374317
1.31325544191e-05
-0.000471447799285
1.11675979084e-05
-0.000473471507922
9.32030279579e-06
-0.000474973471561
7.57382335417e-06
-0.000475977876682
5.91234940646e-06
-0.000476504440739
4.32107222359e-06
-0.000476568687698
2.78579685049e-06
-0.000476181936836
1.29198619688e-06
-0.000475352154575
-1.73767487222e-07
-0.00047409666577
-1.60895703668e-06
-0.000472426116028
-3.01637121023e-06
-0.000470335685871
-4.41044014106e-06
-0.000467822513439
-5.79720878705e-06
-0.000464883715966
-7.18277341761e-06
-0.000461515942995
-8.5720751475e-06
-0.000457714933485
-9.9690647683e-06
-0.000453475597284
-1.1377070692e-05
-0.000448792106006
-1.27990051402e-05
-0.000443657958189
-1.42374961139e-05
-0.000438066012931
-1.56949322862e-05
-0.000432008538756
-1.71734409904e-05
-0.000425477289714
-1.86747800542e-05
-0.000418463655686
-2.02001707157e-05
-0.000410958889963
-2.17500651553e-05
-0.000402954448041
-2.33238929831e-05
-0.000394442420791
-2.49197959109e-05
-0.000385416072357
-2.65344098286e-05
-0.000375870437401
-2.81627133064e-05
-0.000365802958228
-2.97980068305e-05
-0.000355214086647
-3.14320394683e-05
-0.00034410780599
-3.30553378879e-05
-0.000332491979736
-3.4657737237e-05
-0.000320378474638
-3.62291433151e-05
-0.000307782964695
-3.77604987967e-05
-0.000294724372376
-3.92449566271e-05
-0.000281223876887
-4.06792077281e-05
-0.000267303465357
-4.2064965577e-05
-0.000252984028395
-4.34104928086e-05
-0.000238282953992
-4.47322381711e-05
-0.000223211312111
-4.60562518907e-05
-0.000207770748456
-4.74193757072e-05
-0.00019194978674
-4.88704735487e-05
-0.000175720160949
-5.04702461443e-05
-0.000159033686536
-5.22893910421e-05
-0.000141819476331
-5.44046892947e-05
-0.00012398203893
-5.68875817511e-05
-0.000105401020041
-5.97783473601e-05
-8.59392900694e-05
-6.30373959567e-05
-6.5487558347e-05
-6.64468726209e-05
-4.40697279122e-05
-6.93483714208e-05
-2.19814173877e-05
-6.97915567333e-05
-6.22797445332e-05
-2.2042340828e-05
2.85512161484e-06
-4.96599632275e-05
3.91390425269e-05
-7.49371627229e-05
6.37897440755e-05
-0.000100799948675
8.27703132257e-05
-0.000126932119065
9.66845119354e-05
-0.00015268657702
0.000105984557462
-0.000177934457972
0.000110895315432
-0.000202587597608
0.000112182865837
-0.000226347431487
0.00011078449123
-0.000248948947305
0.000107404401811
-0.000270202954056
0.00010263208369
-0.000290001469046
9.6941099158e-05
-0.000308304817821
9.0706832744e-05
-0.000325124310246
8.421968064e-05
-0.000340506125208
7.7697481566e-05
-0.000354518108642
7.12973911924e-05
-0.000367239783971
6.51271918371e-05
-0.000378755271127
5.9255721735e-05
-0.000389148586241
5.37220779516e-05
-0.00039850074084
4.85433827727e-05
-0.000406888112805
4.37210681268e-05
-0.000414381657657
3.9245772498e-05
-0.000421046636204
3.51010296983e-05
-0.000426942634929
3.12659610092e-05
-0.000432123731817
2.77171858913e-05
-0.000436638721309
2.44301382984e-05
-0.000440531350707
2.13799557791e-05
-0.000443840548109
1.8542064875e-05
-0.000446600631462
1.5892550407e-05
-0.000448841511089
1.34083868255e-05
-0.000450588886825
1.10675855464e-05
-0.000451864494022
8.84933449754e-06
-0.000452686309935
6.73406745393e-06
-0.000453068568982
4.70323052206e-06
-0.000453021998576
2.73912465327e-06
-0.000452556305816
8.26189569769e-07
-0.000451683853518
-1.0463230161e-06
-0.000450408697615
-2.88421622792e-06
-0.000448728227519
-4.69694289702e-06
-0.000446642578587
-6.49619029754e-06
-0.00044414956073
-8.29032563479e-06
-0.000441246022923
-1.00864094875e-05
-0.000437928035525
-1.18901581596e-05
-0.000434190965921
-1.37062290478e-05
-0.000430029575484
-1.55385529265e-05
-0.000425438068062
-1.73906033854e-05
-0.000420410079413
-1.92655726552e-05
-0.000414938648099
-2.11664506358e-05
-0.000409016186079
-2.30959872171e-05
-0.00040263450166
-2.50565480635e-05
-0.000395784893199
-2.70498601554e-05
-0.000388458359976
-2.90766790555e-05
-0.000380645934016
-3.1136397275e-05
-0.000372339158563
-3.32266496919e-05
-0.000363530688694
-3.5342955901e-05
-0.000354215007111
-3.7478471267e-05
-0.00034438919457
-3.9623893701e-05
-0.000334053713124
-4.17675953979e-05
-0.000323213111954
-4.38960113667e-05
-0.000311876592069
-4.59943293384e-05
-0.000300058329737
-4.80474753911e-05
-0.00028777750073
-5.00413970877e-05
-0.000275057906155
-5.19646176985e-05
-0.000261927207422
-5.38099722063e-05
-0.000248415637071
-5.5576598784e-05
-0.00023455437235
-5.72718195498e-05
-0.000220373313261
-5.89133565449e-05
-0.000205898415063
-6.05312085284e-05
-0.000191149076525
-6.21687702164e-05
-0.000176134383907
-6.38852210278e-05
-0.000160849302457
-6.57553799512e-05
-0.000145271883456
-6.78668602268e-05
-0.000129359101822
-7.03175174805e-05
-0.000113040861194
-7.32058654174e-05
-9.62135135732e-05
-7.66057322536e-05
-7.87361812769e-05
-8.05147662814e-05
-6.04400280372e-05
-8.47430556548e-05
-4.1130799988e-05
-8.86576116375e-05
-2.07224245469e-05
-9.01999767542e-05
-8.3002136434e-05
-3.29107115873e-05
3.57660203923e-05
-6.09157031658e-05
6.71440155068e-05
-8.79473097317e-05
9.0821310552e-05
-0.000114308357266
0.0001091313212
-0.00013976782433
0.000122143944218
-0.00016411418679
0.000130330889894
-0.000187349864875
0.000134130967036
-0.000209468751266
0.000134301726376
-0.000230376948037
0.000131692661225
-0.000249998349718
0.000127025773825
-0.000268290576779
0.000120924278016
-0.000285249454379
0.000113899940153
-0.000300902757807
0.000106360096107
-0.0003153004361
9.86173151032e-05
-0.000328505214909
9.09022132063e-05
-0.000340585267374
8.33773930285e-05
-0.000351609293539
7.61511641663e-05
-0.000361643670983
6.92900421036e-05
-0.000370751099685
6.28294463997e-05
-0.000378990176726
5.67823964155e-05
-0.000386415456905
5.11462816684e-05
-0.000393077700313
4.59079461312e-05
-0.000399024138656
4.1047394919e-05
-0.000404298678518
3.65404245814e-05
-0.000408942020506
3.23604481312e-05
-0.000412991703223
2.84797380772e-05
-0.000416482083764
2.48702498574e-05
-0.000419444297766
2.15041892651e-05
-0.000421906208786
1.83543683348e-05
-0.0004238923611
1.53944431048e-05
-0.00042542399239
1.25991175766e-05
-0.000426519044147
9.94428453254e-06
-0.000427192309796
7.40722836523e-06
-0.000427455402802
4.96621652664e-06
-0.000427316563457
2.60017572689e-06
-0.000426782036224
2.91552467162e-07
-0.000425861698727
-1.96677040871e-06
-0.000424560479709
-4.18554384504e-06
-0.000422874851242
-6.38267912683e-06
-0.000420801883049
-8.56926440124e-06
-0.000418337728915
-1.07545844177e-05
-0.000415478047608
-1.2946193174e-05
-0.000412218147327
-1.51501592929e-05
-0.000408553053856
-1.73714208806e-05
-0.00040447753109
-1.96141724675e-05
-0.000399986029905
-2.18821988419e-05
-0.000395072582118
-2.41791132552e-05
-0.0003897306608
-2.65084624227e-05
-0.000383953053708
-2.88736835969e-05
-0.00037773178705
-3.12779019498e-05
-0.000371058151747
-3.37235818692e-05
-0.0003639228642
-3.62120512829e-05
-0.00035631639945
-3.87429462342e-05
-0.00034822950419
-4.13136276917e-05
-0.0003396538946
-4.39186479612e-05
-0.000330583105928
-4.6549341011e-05
-0.000321013455103
-4.91936252749e-05
-0.000310945038827
-5.18360908265e-05
-0.000300382691598
-5.44584370742e-05
-0.000289336799554
-5.70402978206e-05
-0.000277823870725
-5.95604794479e-05
-0.000265866803905
-6.19985365795e-05
-0.000253494678156
-6.43368144268e-05
-0.000240742254308
-6.65624641812e-05
-0.000227648713822
-6.86702054588e-05
-0.000214256324973
-7.06642717596e-05
-0.000200608376662
-7.25613662545e-05
-0.00018674622247
-7.43934215334e-05
-0.000172707612799
-7.62074368721e-05
-0.000158522552038
-7.80703365035e-05
-0.000144208617323
-8.00693672792e-05
-0.000129769232592
-8.23062944862e-05
-0.00011518916657
-8.48976287384e-05
-0.000100425219316
-8.79698525036e-05
-8.53967457707e-05
-9.1634240808e-05
-6.99722404503e-05
-9.59392961455e-05
-5.39540935215e-05
-0.000100761225584
-3.70207045116e-05
-0.000105591025608
-1.88185029101e-05
-0.000108402122434
-0.000101820653119
-3.41081988656e-05
6.9873921531e-05
-6.47899600507e-05
9.78257146981e-05
-9.30698033384e-05
0.000119101122728
-0.000119508465358
0.000135569957214
-0.000144204522529
0.000146839978085
-0.000167203297266
0.000153329643942
-0.000188633456856
0.000155561107293
-0.000208608348367
0.000154276598395
-0.000227188849933
0.000150273141203
-0.000244432136464
0.000144269035723
-0.000260399440173
0.000136891552973
-0.000275158237043
0.000128658704024
-0.000288779135424
0.000119980956856
-0.000301331824661
0.000111169962294
-0.000312881959956
0.000102452301999
-0.000323489606275
9.39849886484e-05
-0.000333209066356
8.58705694451e-05
-0.000342089580179
7.8170497194e-05
-0.000350176373378
7.09161770742e-05
-0.000357511674279
6.41176310535e-05
-0.000364135494399
5.77700319193e-05
-0.000370086109865
5.18584880716e-05
-0.000375400263104
4.63614710877e-05
-0.000380113150957
4.12532316923e-05
-0.000384258269768
3.65054826371e-05
-0.000387867180322
3.20885605998e-05
-0.000390969256347
2.79722342549e-05
-0.000393591412544
2.41262500983e-05
-0.000395757860879
2.05207177603e-05
-0.000397489916937
1.71263966554e-05
-0.000398805852909
1.39149478223e-05
-0.000399720951645
1.08592741578e-05
-0.000400247447103
7.93361161701e-06
-0.000400394599163
5.11325341431e-06
-0.00040016901708
2.37447639282e-06
-0.000399575324679
-3.02258623042e-07
-0.000398618092278
-2.92412030197e-06
-0.000397297679225
-5.5060731868e-06
-0.000395609948566
-8.07052436827e-06
-0.000393550377879
-1.06289480027e-05
-0.000391113845946
-1.31912271057e-05
-0.000388295048768
-1.57650990972e-05
-0.000385088739328
-1.83565750706e-05
-0.000381489834892
-2.09704295477e-05
-0.000377493393869
-2.36107153275e-05
-0.000373094476058
-2.62812165393e-05
-0.000368287912552
-2.89857744896e-05
-0.000363068029903
-3.17284411945e-05
-0.000357428379225
-3.45134286184e-05
-0.000351361530899
-3.73448434685e-05
-0.000344858991495
-4.02262131097e-05
-0.000337911299399
-4.31598344945e-05
-0.00033050833914
-4.61459965777e-05
-0.00032263990255
-4.91821538909e-05
-0.000314296496132
-5.22621430448e-05
-0.000305470371999
-5.5375553257e-05
-0.000296156726255
-5.85073579272e-05
-0.000286354983829
-6.16379191532e-05
-0.00027607005765
-6.47434473532e-05
-0.000265313496633
-6.77969412182e-05
-0.000254104291079
-7.07697648727e-05
-0.000242469519502
-7.36333856074e-05
-0.000230444114846
-7.63622935332e-05
-0.000218070884211
-7.89357663969e-05
-0.00020539890144
-8.13422567318e-05
-0.000192482547846
-8.35806909576e-05
-0.000179379789025
-8.56641876633e-05
-0.000166147794906
-8.76254759524e-05
-0.000152843193273
-8.95120958644e-05
-0.000139517488924
-9.1396096684e-05
-0.000126209629006
-9.33772799162e-05
-0.000112945663686
-9.55703096328e-05
-9.97362271287e-05
-9.8107109766e-05
-8.65633247939e-05
-0.000101142792223
-7.337025735e-05
-0.000104827334506
-6.00438140996e-05
-0.0001092657622
-4.63877366361e-05
-0.000114417312428
-3.20423444005e-05
-0.000119936387164
-1.64482822673e-05
-0.000123996212252
-0.000118268879048
-3.35988604315e-05
0.00010347304413
-6.47757254113e-05
0.000129002639517
-9.32389266011e-05
0.000147564333294
-0.000119258572729
0.000161589597108
-0.000143027874155
0.000170609268673
-0.000164734286028
0.000175036043314
-0.000184590930699
0.000175417738289
-0.000202797011152
0.000172482663021
-0.000219515681444
0.000166991792746
-0.000234891021888
0.000159644353433
-0.000249049606144
0.000151050110112
-0.000262101526557
0.000141710592406
-0.000274140225177
0.000132019618523
-0.000285243194758
0.000122272889876
-0.000295473884589
0.000112682944948
-0.000304884484007
0.000103395536408
-0.000313518977938
9.45050071199e-05
-0.000321415931219
8.60673898264e-05
-0.00032861067398
7.81108549031e-05
-0.000335136785626
7.06436736923e-05
-0.000341026936486
6.36601096983e-05
-0.000346313225376
5.71446999499e-05
-0.000351027170254
5.10753349374e-05
-0.000355199487357
4.5425463828e-05
-0.000358859762234
4.01656684644e-05
-0.00036203608225
3.52647875409e-05
-0.000364754666816
3.069072158e-05
-0.000367039528766
2.64110107071e-05
-0.000368912179062
2.23932625173e-05
-0.000370391384542
1.86054925824e-05
-0.000371492998537
1.50164482622e-05
-0.000372229766183
1.15959245799e-05
-0.000372611254149
8.31497843316e-06
-0.000372644179167
5.14605301928e-06
-0.000372333680907
2.06385022058e-06
-0.000371684233413
-9.51834103223e-07
-0.000370692437475
-3.91604321183e-06
-0.000369351304273
-6.84733164083e-06
-0.000367656816922
-9.76513507207e-06
-0.00036560283902
-1.26830469394e-05
-0.000363182812771
-1.56113720178e-05
-0.000360390427522
-1.85576003463e-05
-0.000357220004383
-2.15271116711e-05
-0.000353666629108
-2.45239156279e-05
-0.000349726073202
-2.75513796818e-05
-0.000345394535874
-3.06128599806e-05
-0.000340668254756
-3.3712159819e-05
-0.00033554304363
-3.68537547108e-05
-0.000330013829264
-4.00427440647e-05
-0.000324074262761
-4.32845097867e-05
-0.000317716485535
-4.65840893899e-05
-0.000310931121407
-4.99452968295e-05
-0.000303707557136
-5.33696585954e-05
-0.000296034548399
-5.68552596366e-05
-0.000287901164103
-6.03956237842e-05
-0.000279298038779
-6.397877396e-05
-0.000270218870384
-6.75866205577e-05
-0.000260662073702
-7.11948082596e-05
-0.000250632381063
-7.47732303587e-05
-0.000240142496247
-7.82869136985e-05
-0.000229213974587
-8.16983712216e-05
-0.000217878690385
-8.49687511149e-05
-0.000206177948249
-8.8063113428e-05
-0.000194163827347
-9.09499614826e-05
-0.000181896441233
-9.36097135262e-05
-0.000169443418558
-9.60337806457e-05
-0.000156879569541
-9.82281010997e-05
-0.00014427869216
-0.000100226413898
-0.000131717023521
-0.000102073824019
-0.000119269596125
-0.000103843580222
-0.000106997999165
-0.000105648931983
-9.49487063856e-05
-0.00010761965202
-8.31569040809e-05
-0.000109898955475
-7.16280797339e-05
-0.000112671649282
-6.0327383182e-05
-0.000116128053726
-4.91639240225e-05
-0.000120429226741
-3.79561786402e-05
-0.000125625053944
-2.6371202942e-05
-0.000131521375858
-1.370416751e-05
-0.000136663146888
-0.000131973058957
-3.24204870524e-05
0.000135893466747
-6.2777322635e-05
0.000159359496266
-9.05030170234e-05
0.000175290043202
-0.000115619104728
0.000186705689896
-0.000138284790831
0.000193274953101
-0.000158721913795
0.00019547316049
-0.000177180481626
0.000193876296857
-0.000193905878128
0.000189208046782
-0.000209116455509
0.000182202353304
-0.000223003451057
0.000173531327698
-0.000235727802937
0.000163774435745
-0.0002474204476
0.000153403205687
-0.000258184540018
0.000142783674237
-0.000268099605882
0.000132187913743
-0.000277226733929
0.00012181002578
-0.000285613850643
0.000111782600812
-0.000293300322505
0.0001021914218
-0.000300320488019
9.30874934006e-05
-0.000306706052155
8.44963525926e-05
-0.000312487493879
7.64250444976e-05
-0.000317694730169
6.886727076e-05
-0.000322357284699
6.18071748919e-05
-0.000326504163275
5.52221295893e-05
-0.000330163578411
4.90847905971e-05
-0.00033336260982
4.33646070212e-05
-0.000336126848143
3.8028928393e-05
-0.000338480045571
3.30438168543e-05
-0.000340443787486
2.83746456628e-05
-0.000342037191276
2.39865545281e-05
-0.000343276643941
1.98448286415e-05
-0.00034417556512
1.5915248181e-05
-0.000344744175612
1.21644088632e-05
-0.000344989360893
8.56003216665e-06
-0.0003449150457
5.07160266088e-06
-0.000344523093018
1.67175839435e-06
-0.000343812246506
-1.6628203269e-06
-0.000342776578768
-4.95184875553e-06
-0.000341407465649
-8.21658045676e-06
-0.00033969624169
-1.14764923118e-05
-0.000337633769674
-1.47456495371e-05
-0.00033521137583
-1.80338935076e-05
-0.000332421489925
-2.13476108716e-05
-0.000329258041912
-2.4690681269e-05
-0.000325716573164
-2.80655030661e-05
-0.000321794066864
-3.14740019942e-05
-0.000317488532179
-3.49185083207e-05
-0.000312798402895
-3.84024007317e-05
-0.000307721828937
-4.19304386877e-05
-0.000302255952841
-4.55087288745e-05
-0.000296396272341
-4.91442980856e-05
-0.000290136191984
-5.2844276781e-05
-0.000283466864828
-5.66147304788e-05
-0.000276377407807
-6.04592214991e-05
-0.000268855549434
-6.43772232311e-05
-0.000260888730354
-6.83625471227e-05
-0.000252465634366
-7.24019728646e-05
-0.000243578025891
-7.64743301489e-05
-0.000234222946693
-8.05499861336e-05
-0.000224404529861
-8.4591743063e-05
-0.000214136713926
-8.8554822001e-05
-0.000203443393785
-9.23917801306e-05
-0.000192362146368
-9.60500834477e-05
-0.000180940777511
-9.94845628932e-05
-0.000169242060569
-0.00010264875571
-0.000157338373572
-0.000105513473324
-0.000145311310684
-0.000108060913884
-0.000133255288334
-0.00011028418988
-0.000121262617964
-0.00011221914874
-0.000109429491002
-0.000113907012464
-9.7856043927e-05
-0.000115417086842
-8.66322657526e-05
-0.000116872766508
-7.58250889865e-05
-0.000118426879473
-6.54937269418e-05
-0.000120230359185
-5.56677722098e-05
-0.000122497630363
-4.6332274002e-05
-0.000125463560692
-3.74200836866e-05
-0.000129341416704
-2.8764595807e-05
-0.000134280532957
-2.0093141002e-05
-0.00014019276705
-1.06280463659e-05
-0.000146128278599
-0.000142601052237
-3.06934024273e-05
0.000166587116981
-5.96334107953e-05
0.000188299596255
-8.60893344284e-05
0.00020174600719
-0.000109971214851
0.000210587588332
-0.000131395251549
0.000214698996684
-0.000150571822482
0.000214649731409
-0.000167753771008
0.000211058240188
-0.00018320048519
0.000204654750894
-0.000197150744178
0.000196152597382
-0.000209813402673
0.000186193966195
-0.00022136147003
0.000175322477877
-0.000231932215899
0.000163973920962
-0.000241630967983
0.000152482390303
-0.00025053719413
0.000141094098496
-0.000258711212159
0.000129983997077
-0.000266200306043
0.00011927164282
-0.000273043574493
0.000109034633299
-0.00027927533988
9.93191970067e-05
-0.000284927278459
9.01482245765e-05
-0.000290029579808
8.15272746055e-05
-0.00029461145839
7.34490733917e-05
-0.000298701280145
6.58969159587e-05
-0.00030232648638
5.8847250299e-05
-0.00030551342057
5.22716342791e-05
-0.000308287107688
4.61381985093e-05
-0.000310671004094
4.04127238786e-05
-0.000312686726787
3.50594331703e-05
-0.000314353763491
3.00415703874e-05
-0.000315689169753
2.53218430107e-05
-0.000316707260562
2.08627958441e-05
-0.000317419303228
1.66271613394e-05
-0.0003178332041
1.25781742201e-05
-0.00031795319435
8.67988088336e-06
-0.000317779980018
4.89823891272e-06
-0.000317311620006
1.20324693711e-06
-0.000316542759906
-2.43183183654e-06
-0.000315463733381
-6.03102491383e-06
-0.000314061590989
-9.61887012531e-06
-0.000312323216231
-1.32150115002e-05
-0.000310235918868
-1.68330881758e-05
-0.00030778839067
-2.04815595481e-05
-0.000304971484107
-2.41646517704e-05
-0.000301778694649
-2.7883601587e-05
-0.000298206268599
-3.16380567476e-05
-0.000294252926996
-3.54274682976e-05
-0.000289919249859
-3.92523076753e-05
-0.000285206803123
-4.3114967642e-05
-0.000280117110759
-4.70202496392e-05
-0.000274650589368
-5.0975367667e-05
-0.000268805577964
-5.49894259939e-05
-0.000262577595847
-5.90723746735e-05
-0.000255958967784
-6.32334736395e-05
-0.000248938930212
-6.74793732978e-05
-0.000241504308065
-7.18119585829e-05
-0.000233640775051
-7.62261917138e-05
-0.000225334773887
-8.07080837428e-05
-0.000216575605192
-8.52336057394e-05
-0.000207358689879
-8.97670054482e-05
-0.000197686795419
-9.42637377309e-05
-0.000187575586907
-9.86661270053e-05
-0.000177050343104
-0.000102917116742
-0.000166155919672
-0.00010694459494
-0.000154946014837
-0.000110694553161
-0.000143495601395
-0.000114099249863
-0.000131890618221
-0.000117118535508
-0.000120226815229
-0.000119724792418
-0.000108619800859
-0.000121891277015
-9.71848365973e-05
-0.000123654183136
-8.60397678167e-05
-0.000125052147279
-7.53068513299e-05
-0.000126150069111
-6.51143768643e-05
-0.000127065300269
-5.55542232834e-05
-0.000127987085864
-4.67090005278e-05
-0.000129075617396
-3.86365346593e-05
-0.000130570116223
-3.13433114877e-05
-0.000132756787151
-2.47860558635e-05
-0.000135898661203
-1.88131018374e-05
-0.000140253467995
-1.32126716519e-05
-0.000145793231358
-7.2163739937e-06
-0.000152124484171
-0.000149817471763
-2.86331312942e-05
0.000195220235957
-5.58418271778e-05
0.000215508337288
-8.07503347277e-05
0.000226654550415
-0.000103213856829
0.000233051132391
-0.000123315688131
0.000234800839572
-0.000141242491335
0.00023257653872
-0.000157232362036
0.000227048108868
-0.000171537626189
0.000218960007526
-0.000184394891017
0.000209009849345
-0.000196011435441
0.000197810492423
-0.000206558242361
0.000185869261257
-0.000216170289824
0.000173585939474
-0.000224951135856
0.000161263202037
-0.000232979603924
0.00014912252689
-0.000240316623643
0.000137320971919
-0.00024701104727
0.000125966016374
-0.000253103971484
0.000115127502467
-0.000258631607404
0.00010484677288
-0.000263627000799
9.51435530855e-05
-0.000268120968573
8.60211725441e-05
-0.000272142564199
7.74705941799e-05
-0.000275719292453
6.94735642572e-05
-0.000278877199628
6.20050721443e-05
-0.000281640894099
5.50352379143e-05
-0.000284033504975
4.85307128026e-05
-0.000286076568629
4.2455684972e-05
-0.000287789842414
3.67725982058e-05
-0.000289191040384
3.14426529835e-05
-0.000290295507152
2.64261876723e-05
-0.000291115835252
2.16829948179e-05
-0.000291661459334
1.71726492303e-05
-0.00029193827612
1.28548470821e-05
-0.000291948048717
8.68950077833e-06
-0.00029168786721
4.63790015242e-06
-0.00029115130474
6.66520186173e-07
-0.000290329580177
-3.25371955286e-06
-0.000289209080441
-7.15168553369e-06
-0.000287771330366
-1.10567783308e-05
-0.000285997965886
-1.49885312021e-05
-0.000283871739874
-1.8959465929e-05
-0.000281377808139
-2.2975639406e-05
-0.000278504793234
-2.70378109462e-05
-0.000275245441009
-3.1143094401e-05
-0.000271596755724
-3.5286879085e-05
-0.000267559603392
-3.94647546257e-05
-0.000263137847624
-4.36741947842e-05
-0.000258337138446
-4.7915806081e-05
-0.00025316348618
-5.21940294745e-05
-0.00024762176158
-5.65172185824e-05
-0.000241714299411
-6.08970133135e-05
-0.000235439762458
-6.53470358196e-05
-0.000228792468101
-6.9880890861e-05
-0.000221762313338
-7.45096496983e-05
-0.000214335485434
-7.92389059939e-05
-0.000206495789793
-8.40660049421e-05
-0.000198227328782
-8.89766590988e-05
-0.00018951618161
-9.39448644196e-05
-0.000180356437138
-9.89268578338e-05
-0.00017074793991
-0.000103872338816
-0.000160709725384
-0.000108704442753
-0.000150266133501
-0.000113360805614
-0.000139471995533
-0.000117738827939
-0.000128385378497
-0.000121781262167
-0.000117094862176
-0.00012538985564
-0.00010570070387
-0.000128512782369