/*--------------------------------*- C++ -*----------------------------------*\
| =========                 |                                                 |
| \\      /  F ield         | OpenFOAM: The Open Source CFD Toolbox           |
|  \\    /   O peration     | Version:  v1806                                 |
|   \\  /    A nd           | Web:      www.OpenFOAM.com                      |
|    \\/     M anipulation  |                                                 |
\*---------------------------------------------------------------------------*/
FoamFile
{
    version     2.0;
    format      ascii;
    class       surfaceScalarField;
    location    "400";
    object      phia;
}
// * * * * * * * * * * * * * * * * * * * * * * * * * * * * * * * * * * * * * //

dimensions      [0 3 -1 0 0 0 0];
oriented        oriented;


internalField   nonuniform List<scalar> 
12640
(
-0.000969556289419
0.000969853116751
-0.00200570170463
0.00103643065225
-0.00279508433312
0.000789747203959
-0.00419929974509
0.00140453387108
-0.00533947771854
0.00114057310074
-0.00623838615076
0.000899396728645
-0.00696637789187
0.000728376961745
-0.00751157601225
0.000545523301791
-0.00794929585226
0.000438017989374
-0.00830725868494
0.000358234401388
-0.00860052328581
0.000293509736929
-0.00884094148749
0.000240640237206
-0.00903814558169
0.000197404789704
-0.009199764662
0.00016180388294
-0.00933187503768
0.000132280707712
-0.00943941009928
0.000107695524774
-0.00952643266009
8.71735528642e-05
-0.00959629799343
7.00103751888e-05
-0.0096517753793
5.56162007137e-05
-0.00969514096994
4.35009542911e-05
-0.00972826546043
3.3255806054e-05
-0.0097526816946
2.45457754315e-05
-0.00976964899716
1.70943448406e-05
-0.0097801992254
1.06766493681e-05
-0.00978518242113
5.10824033401e-06
-0.00978529706543
2.39867828026e-07
-0.00978112229604
-4.05002610957e-06
-0.00977313701109
-7.85968407503e-06
-0.00976174301319
-1.12681307298e-05
-0.00974727792979
-1.43379067709e-05
-0.00973003422738
-1.71159006988e-05
-0.0097102804023
-1.96246357167e-05
-0.00968832579929
-2.18243726251e-05
-0.00966472958337
-2.34644775897e-05
-0.00964065083684
-2.3945161248e-05
-0.00961680345286
-2.37128798932e-05
-0.00958377356494
-3.28941926848e-05
-0.00952558616466
-5.80526350633e-05
-0.00944779008535
-7.76617982927e-05
-0.00935475468571
-9.29041285347e-05
-0.00925240638538
-0.000102219322062
-0.00914353201263
-0.000108750259498
-0.00902985250361
-0.000113559296981
-0.00891240786114
-0.000117330842912
-0.00879190032293
-0.000120398936734
-0.00866887294059
-0.000122926211096
-0.00854381667089
-0.000124961066987
-0.00841724264186
-0.000126486589943
-0.00828971536722
-0.000127445911619
-0.00816187554048
-0.000127765818205
-0.00803445198823
-0.000127354997492
-0.00790827478585
-0.000126114885534
-0.00778428057997
-0.000123936025916
-0.00766351438679
-0.000120712576384
-0.00754712012991
-0.000116342938458
-0.00743632175284
-0.000110749652165
-0.00733238843969
-0.000103884824697
-0.00723658639858
-9.57541976487e-05
-0.00715011250689
-8.6424331529e-05
-0.00707401689217
-7.6045030345e-05
-0.00700911215912
-6.48508253101e-05
-0.00695588284627
-5.31730945881e-05
-0.00691439265756
-4.14294592424e-05
-0.00688420650963
-3.01221759921e-05
-0.00686431971223
-1.9817565903e-05
-0.00685311404235
-1.11326487934e-05
-0.00684832304383
-4.71242501106e-06
-0.00684703433886
-1.20610274721e-06
-0.0068456664526
-1.27925810666e-06
-0.00684003920435
-5.53309340028e-06
-0.00682521771096
-1.47201653733e-05
-0.00679604259867
-2.90644188286e-05
-0.00674611208845
-4.98168154265e-05
-0.00667206657407
-7.39170906355e-05
-0.00656318419757
-0.000108769998181
-0.00642985127012
-0.000133201984358
-0.00619123108387
-0.000238510043771
-0.00588081516814
-0.000310336697046
-0.00408367854767
-0.00179671241257
-0.00408357133507
-0.000706078546608
0.00167654545486
-0.00212650549411
0.00245742070055
-0.00338423090937
0.00204787760724
-0.00453348317528
0.00255409897085
-0.00564998254481
0.00225729334374
-0.00664253730898
0.00189210972864
-0.00755401658978
0.00164001173365
-0.00844656241335
0.00143821500959
-0.00928365598704
0.00127526499337
-0.0100631628096
0.00113788411926
-0.0107855709989
0.00101605872262
-0.0114509248484
0.000906121071005
-0.0120603613598
0.000806962953781
-0.0126163262151
0.000717878481112
-0.013122050408
0.00063811016269
-0.0135811080445
0.00056684962869
-0.0139971226922
0.000503281631129
-0.0143736199368
0.000446594903349
-0.0147139256155
0.000396007262469
-0.0150211264367
0.000350783080271
-0.0152980444413
0.000310254031254
-0.0155472433608
0.000273822504838
-0.0157710350506
0.000240963342291
-0.0159714987172
0.000211216585645
-0.01615049638
0.000184182053046
-0.0163096914075
0.000159511160667
-0.0164505648973
0.000136899904887
-0.0165744296713
0.000116082715337
-0.0166824451487
9.68254341686e-05
-0.0167756285484
7.89254946729e-05
-0.0168548660939
6.22020097635e-05
-0.0169209249323
4.65165951876e-05
-0.0169743749402
3.17081605345e-05
-0.0170155455278
1.77907348737e-05
-0.0170444519776
5.0456711617e-06
-0.0170669401557
-1.13875836349e-06
-0.0171090783529
9.32850331792e-06
-0.0171678976869
8.51272894261e-07
-0.0172162292865
-2.92486495453e-05
-0.0172468171243
-6.22359111859e-05
-0.0172565432547
-9.24170139141e-05
-0.0172430162761
-0.000122203212441
-0.0172045690554
-0.000151937752738
-0.017140057546
-0.000181776435283
-0.0170482873171
-0.000212109270471
-0.0169278623859
-0.000243294278636
-0.0167772103158
-0.00027556257648
-0.0165946101478
-0.00030903879591
-0.016378235736
-0.000343778414162
-0.0161261854092
-0.00037977582075
-0.0158365427716
-0.000416962619196
-0.0155074312655
-0.000455191519022
-0.0151371087785
-0.000494227823802
-0.0147240580574
-0.000533731135466
-0.0142671223659
-0.00057324933064
-0.0137656349501
-0.000612204816399
-0.0132195893568
-0.000649899734763
-0.0126297901655
-0.000685518688082
-0.0119980232611
-0.000718157019296
-0.0113271784184
-0.000746851114305
-0.0106213546398
-0.000770635514081
-0.00988588334668
-0.000788600679161
-0.009127298335
-0.000799969791134
-0.00835320443296
-0.000804166908557
-0.00757208238513
-0.000800888923663
-0.00679300756763
-0.000790152486229
-0.00602533056005
-0.000772332524192
-0.00527831869068
-0.000748156799872
-0.00456081198209
-0.000718721927386
-0.0038808833891
-0.000685392216642
-0.00324556693304
-0.000649961201303
-0.0026606107358
-0.000613939110764
-0.00213026729267
-0.00058006913403
-0.00165713370945
-0.000546961973555
-0.00124106926841
-0.00052473230864
-0.000881071122059
-0.00049312399735
-0.000558155498056
-0.000561327816673
-0.000275555572647
-0.000592804177415
0.00022628165072
-0.0022984979424
-0.00385711349518
-0.00265663426794
0.0043332458173
-0.00358018481569
0.00338126529284
-0.00404677444061
0.00251464095778
-0.00405445817721
0.00256191050664
-0.00420762023973
0.00241055679053
-0.00453238014964
0.00221695662471
-0.00496661423493
0.00207431903594
-0.00546254942447
0.00193422192373
-0.00596467533926
0.0017774599779
-0.00643907700438
0.0016123554007
-0.00687072206601
0.00144776878807
-0.0072539998623
0.00128946063952
-0.00758819400367
0.00114121245702
-0.00787538686689
0.00100512235845
-0.00811909140651
0.000881859800223
-0.00832335459658
0.000771154096207
-0.00849226401513
0.000672227637214
-0.00862970466193
0.00058406920354
-0.00873925222894
0.000505585035664
-0.00882413172293
0.000435690692598
-0.00888721477826
0.000373362873315
-0.00893103453055
0.000317666687641
-0.00895781094513
0.000267762824584
-0.00896947777116
0.00022290570539
-0.00896770974436
0.000182435763268
-0.00895394743953
0.000145770260115
-0.00892941979675
0.000112393826099
-0.00889516449765
8.1849050821e-05
-0.00885204650201
5.37297983269e-05
-0.00880077285347
2.76743822322e-05
-0.00874191422677
3.36665017912e-06
-0.00867591152194
-1.94630289228e-05
-0.00860316489183
-4.1015014078e-05
-0.00852384580757
-6.15053956414e-05
-0.00843685740375
-8.19196869223e-05
-0.00833028239801
-0.000107691879192
-0.00819431535719
-0.0001266176535
-0.00806536807613
-0.000128077080985
-0.00794939780717
-0.000145201591165
-0.00784738489935
-0.000164233617615
-0.00775880409271
-0.000180984324388
-0.00768427581653
-0.000196719987608
-0.00762396738312
-0.000212236223782
-0.00757806110511
-0.000227674427767
-0.00754697462845
-0.000243188516959
-0.00753122396085
-0.000259038855843
-0.00753126916145
-0.000275511526209
-0.00754740719935
-0.000292895350271
-0.00757968160489
-0.000311497812393
-0.00762778982565
-0.000331661129372
-0.00769098162272
-0.000353762525468
-0.00776795474796
-0.000378209251476
-0.00785674722992
-0.000405423555514
-0.00795463872177
-0.000435826718345
-0.00805806189804
-0.000469810171589
-0.0081625446535
-0.00050770498568
-0.00826268718095
-0.000549737144801
-0.00835220047266
-0.000595984587597
-0.00842400872183
-0.000646325457575
-0.00847043796665
-0.00070039829464
-0.0084834810107
-0.000757567055158
-0.00845514287715
-0.000816913479855
-0.0083778355039
-0.000877250490673
-0.00824480198181
-0.000937173772466
-0.00805052227137
-0.000995140745476
-0.00779106647873
-0.00104957994311
-0.00746435205474
-0.00109901714317
-0.00707028753932
-0.00114219019624
-0.00661078011746
-0.00117819572155
-0.00608964748965
-0.00120648729256
-0.00551237164416
-0.00122719428403
-0.00488581450161
-0.00124044506159
-0.00421736227822
-0.00124846751381
-0.00351469008189
-0.00124956723121
-0.00278318653992
-0.00125618214321
-0.0020331487284
-0.00124309057395
-0.00127167311049
-0.00132275689275
-0.000586322867492
-0.00127814191795
1.96609914714e-05
-0.00290427157843
-0.00383748177142
-0.00472199503599
0.00905594172382
-0.00349652314441
0.00215601420769
-0.00294346482286
0.00196167285331
-0.00299570562733
0.00261421819284
-0.00339801521266
0.00281292095231
-0.00399841423894
0.00281739417038
-0.00465917488804
0.00273510941589
-0.00530196315843
0.0025770345691
-0.00589385280747
0.00236937336831
-0.00642497525892
0.0021434992958
-0.00689680293352
0.00191961615237
-0.00731527969691
0.00170795298175
-0.00768739190768
0.00151333661254
-0.00801979847393
0.00133753599113
-0.00831835375083
0.00118041814728
-0.00858799330451
0.0010407922176
-0.00883278095799
0.00091701030005
-0.009056029888
0.000807309435318
-0.00926043742405
0.000709980990125
-0.00944820948827
0.000623448344118
-0.00962116290686
0.000546299689518
-0.00978080817876
0.000477293361135
-0.00992841381208
0.000415348283644
-0.0100650563877
0.000359526826873
-0.0101916589819
0.000309015793896
-0.0103090202672
0.000263108276717
-0.0104178376841
0.00022118722409
-0.0105187242887
0.000182711400082
-0.0106122241842
0.000147204876968
-0.0106988192607
0.000114244453692
-0.0107789420601
8.34635240725e-05
-0.0108529388166
5.45071015329e-05
-0.0109211025764
2.7120828202e-05
-0.0109835308264
8.93975819173e-07
-0.0110421284766
-2.33524301692e-05
-0.0111059370299
-4.39151321033e-05
-0.0111513756324
-8.12124272291e-05
-0.0111667657867
-0.000112721750883
-0.0111629819888
-0.000149021270153
-0.0111382321179
-0.000189020203933
-0.011090210693
-0.000229042530305
-0.0110184995683
-0.000268467714172
-0.0109230206129
-0.000307750673947
-0.0108036606703
-0.000347068460252
-0.0106605039621
-0.000386377013166
-0.0104939475398
-0.000425624348549
-0.0103047143786
-0.000464770395646
-0.0100938787164
-0.000503752808339
-0.00986291575976
-0.000542478490786
-0.0096137542265
-0.000580835662165
-0.00934881560243
-0.000618709907863
-0.00907102921362
-0.000655999475054
-0.00878381824809
-0.000692634585907
-0.00849104213849
-0.000728598468382
-0.00819689142756
-0.000763953805206
-0.00790571962666
-0.000798866396709
-0.00762181691696
-0.000833628166863
-0.00734912065878
-0.000868667314667
-0.0070908860979
-0.000904546647855
-0.00684933302114
-0.000941937609495
-0.00662531345265
-0.000981574121338
-0.00641803426995
-0.00102418076688
-0.00622488644713
-0.00107038804222
-0.00604141076404
-0.00112063999995
-0.00586142833477
-0.00117511484644
-0.00567733526062
-0.00123366498671
-0.00548054546575
-0.00129579893783
-0.00526204985367
-0.00136067697122
-0.00501304309295
-0.0014271916358
-0.00472560209309
-0.00149391384812
-0.00439332665921
-0.00155944882255
-0.00401206128028
-0.00162168390158
-0.00358009605153
-0.00168039538808
-0.00309912467726
-0.00173050492058
-0.00257192769531
-0.00178333018715
-0.00200936286648
-0.00180563021747
-0.00141488305282
-0.00191719675344
-0.000853050662162
-0.00183988434119
-0.000237044935717
-0.00352034697507
-0.00407445226746
-0.00146807439615
0.0105238468128
-0.000906239575145
0.00159419214173
-0.0015833387053
0.00263880644652
-0.00247604035734
0.00350695352292
-0.00332914892355
0.00366605734414
-0.00411166849185
0.00359993505173
-0.00478797229075
0.00341142770268
-0.00535175776908
0.00314083080477
-0.00582027202839
0.00283789511249
-0.00621381980532
0.00253705259415
-0.00654907230382
0.00225487111084
-0.00683886967985
0.00199774996102
-0.00709270770868
0.00176717038364
-0.00731730130718
0.0015621217603
-0.00751727195134
0.00138037690843
-0.0076957773627
0.00121928214645
-0.00785499118185
0.00107620492326
-0.00799644279668
0.000948738635633
-0.00812125491911
0.000834767585017
-0.00823030318014
0.000732468416734
-0.00832431894412
0.000640284841834
-0.00840395116531
0.000556892897367
-0.00846980121138
0.000481163876566
-0.00852243998693
0.000412129571836
-0.00856241355098
0.000348952083267
-0.00859024222179
0.000290898455065
-0.00860641474265
0.000237320397127
-0.00861138160456
0.000187637923193
-0.00860554405259
0.000141326246252
-0.0085892497777
9.79079471685e-05
-0.00856276943481
5.69398383901e-05
-0.00852633348911
1.80263052032e-05
-0.00848001811245
-1.92407912681e-05
-0.00842397859656
-5.51931768699e-05
-0.00835660665932
-9.07732653431e-05
-0.00827550605509
-0.000125065878715
-0.00820332908444
-0.000153440499876
-0.00813441824518
-0.000181683968405
-0.00807342588554
-0.000210065126832
-0.00802214718382
-0.000240349567774
-0.00797938571168
-0.000271853573895
-0.00794402343296
-0.00030387739783
-0.00791524298875
-0.000336576031839
-0.00789204796964
-0.000370304917206
-0.00787314873578
-0.000405313825202
-0.00785699354862
-0.000441812567228
-0.0078417641149
-0.000480027907242
-0.00782535482538
-0.000520185009424
-0.00780537609809
-0.000562474598506
-0.00777919229845
-0.000607031666325
-0.00774399075016
-0.000653918224953
-0.00769688550935
-0.000703106951843
-0.00763505289726
-0.000754464781537
-0.00755590067052
-0.000807744949878
-0.00745725693342
-0.000862588476464
-0.00733756877505
-0.000918543712162
-0.00719608187907
-0.000975102522295
-0.0070329780357
-0.001031758451
-0.00684943263158
-0.00108807923674
-0.00664756804485
-0.00114379054747
-0.0064302773849
-0.00119885420019
-0.00620091918898
-0.0012535302372
-0.00596289702171
-0.00130840294007
-0.00571916726258
-0.00136436411897
-0.00547173277987
-0.00142254463413
-0.00522119426626
-0.0014841994786
-0.00496642498604
-0.0015505641157
-0.00470443686862
-0.00162266031859
-0.00443046839921
-0.00170115351012
-0.00413835303499
-0.0017860188561
-0.00382115725663
-0.00187662905592
-0.00347229800673
-0.00197051941867
-0.00308669791124
-0.00206596984853
-0.0026632365711
-0.00215393009101
-0.0022042079009
-0.00224233741792
-0.00172252302026
-0.00228727716752
-0.00122084579598
-0.00241885824492
-0.000754369542501
-0.00230639786334
-0.000187138477685
-0.004087459926
-0.00426164177039
-6.42559492437e-05
0.0105883857393
-0.000280331813252
0.00181032196186
-0.00166380934201
0.00402229978012
-0.00282728723699
0.00467044393756
-0.00372113774649
0.00455991987274
-0.00441758786211
0.00429639485963
-0.00494992200498
0.00394376917004
-0.00535944778389
0.00355036103854
-0.00568718536897
0.00316563512029
-0.0059625803164
0.00281244735817
-0.00620424525809
0.00249653352631
-0.0064236295642
0.00221712869549
-0.00662751174512
0.00197104405593
-0.00681957928647
0.00175417739367
-0.00700158969274
0.00156237218152
-0.00717420050534
0.00139187442176
-0.00733750328904
0.00123948601617
-0.00749134622489
0.00110255677203
-0.00763552170979
0.000978915454773
-0.00776986918304
0.000866785656411
-0.00789432328251
0.00076470637583
-0.00800892837183
0.000671463366165
-0.00811383386271
0.000586032904938
-0.00820927954586
0.000507537232815
-0.00829557704737
0.000435210091131
-0.00837309009929
0.000368370792546
-0.00844221642876
0.00030640477516
-0.00850337087199
0.000248749347061
-0.00855697273031
0.000194883866568
-0.00860343222702
0.000144321945049
-0.00864314881465
9.6609469931e-05
-0.00867648854938
5.13175916542e-05
-0.00870383885298
8.05986100329e-06
-0.00872558976398
-3.34929981804e-05
-0.0087429058401
-7.3508686695e-05
-0.00875182972872
-0.00011619402135
-0.00874485737284
-0.00016046442949
-0.00872194625356
-0.000204646086484
-0.00868240747186
-0.000249653410656
-0.00862702689866
-0.000295777942271
-0.0085562893419
-0.000342636236846
-0.0084706313207
-0.000389577549995
-0.00837090979269
-0.000436335832203
-0.00825832471028
-0.000482924099178
-0.00813428521093
-0.000529382665718
-0.00800037761945
-0.000575744464336
-0.00785833805412
-0.00062208658454
-0.00770998617025
-0.000668550641387
-0.00755713382462
-0.000715335635083
-0.0074014821979
-0.000762686908558
-0.00724451355406
-0.000810886121213
-0.00708738087445
-0.000860234658535
-0.00693080740576
-0.000911030042074
-0.00677500705757
-0.000963534112646
-0.00661964370702
-0.00101793877722
-0.00646384138959
-0.00107433143505
-0.00630625955865
-0.00113266930201
-0.00614523421246
-0.00119276859678
-0.00597897937229
-0.0012543196533
-0.00580582298967
-0.00131693345914
-0.00562444220052
-0.00138022306819
-0.00543404642774
-0.00144391552667
-0.0052344624547
-0.0015079779805
-0.00502607731762
-0.00157274139445
-0.00480962737052
-0.00163898747175
-0.00458584195145
-0.00170797785081
-0.00435498614447
-0.00178141264344
-0.00411639135629
-0.00186124670413
-0.00386803729522
-0.0019494975385
-0.00360632863801
-0.0020477140372
-0.00332614257252
-0.00215679651621
-0.00302144575411
-0.00227519315309
-0.002686170422
-0.00240121527563
-0.00231681236848
-0.00252326560346
-0.00191254299882
-0.0026465758589
-0.0014841967893
-0.00271561647348
-0.00103409557967
-0.00286894323642
-0.000629182315591
-0.00271125260303
-0.000117147936736
-0.00459959074339
-0.00437875774216
0.000266009209856
0.0103221285134
-0.000605666565487
0.00268192167893
-0.0022493159146
0.00566592221582
-0.00330459797022
0.00572571561388
-0.00401203387313
0.00526735397229
-0.00450753030868
0.00479189437701
-0.00485534298974
0.00429158615703
-0.00511452361288
0.00380954596698
-0.00532771222321
0.00337882634539
-0.005519315593
0.003004051705
-0.00570198376138
0.00267920027819
-0.00588164334482
0.00239678475478
-0.0060603093727
0.00214970395288
-0.00623777400077
0.0019316334877
-0.00641270828995
0.00173729518319
-0.00658334845522
0.00156250071442
-0.00674788881982
0.00140400976591
-0.00690468779407
0.00125933659364
-0.00705236382866
0.00112656983475
-0.00718982584798
0.00100422376887
-0.00731626642008
0.000891120960878
-0.00743113424899
0.000786303367893
-0.0075340973017
0.000688966507949
-0.00762500311633
0.000598412124421
-0.00770383992715
0.000514014694863
-0.00777070060508
0.000435198027327
-0.00782574967651
0.000361419291836
-0.00786919422151
0.000292158189821
-0.00790125797646
0.00022691075074
-0.00792215936936
0.000165185218189
-0.00793209322838
0.000106503895244
-0.00793121065539
5.03945081316e-05
-0.00791959689394
-3.59535087222e-06
-0.00789713413795
-5.59975702428e-05
-0.00786346690506
-0.000107217898016
-0.00782416458242
-0.000155537853661
-0.00778184647064
-0.000202823064533
-0.00773665935771
-0.000249872052844
-0.00768932354177
-0.000297026180334
-0.00764020155807
-0.000344934286182
-0.00758908055793
-0.000393788715284
-0.00753521716484
-0.000443468966432
-0.00747766021512
-0.000493917029065
-0.00741538891607
-0.000545215543697
-0.00734731870669
-0.000597468633899
-0.00727233534089
-0.000650739202218
-0.00718936600769
-0.000705062720731
-0.00709745259804
-0.000760466617391
-0.00699581552756
-0.000816970994559
-0.00688391165679
-0.000874585395845
-0.00676148001049
-0.000933308811275
-0.00662856870663
-0.00099313420875
-0.00648553195667
-0.00105405245052
-0.006332994106
-0.00111605586938
-0.00617177734788
-0.00117913796629
-0.00600280086841
-0.00124328967258
-0.00582696234769
-0.00130848920805
-0.00564502397695
-0.00137468867663
-0.00545752650218
-0.00144179939296
-0.00526475501052
-0.00150968824073
-0.0050667715197
-0.00157819090856
-0.00486350815851
-0.00164716440204
-0.00465490244122
-0.00171657006252
-0.00444102139491
-0.00178660938638
-0.00422213054358
-0.00185786515334
-0.00399864960903
-0.00193144538842
-0.00377095672443
-0.00200909106984
-0.00353908663777
-0.00209310180925
-0.00330231269246
-0.00218625457696
-0.00305877482165
-0.00229123272153
-0.00280520310323
-0.00241034480597
-0.00253709615522
-0.00254327189809
-0.00224910096803
-0.00268918244156
-0.00193702312701
-0.00283531290144
-0.00159775189638
-0.00298583396689
-0.00123883865571
-0.00307450921642
-0.000859485480442
-0.00324829115282
-0.000534857405196
-0.00303593314678
-8.53407852974e-05
-0.00504904267573
-0.00446414508698
0.000278727864269
0.0100434310836
-0.00103008954368
0.00399070249102
-0.00266344549775
0.0072992403133
-0.00348558989154
0.00654783585349
-0.00398821589198
0.00576996815114
-0.00431427357308
0.00511794881746
-0.00453580059859
0.00451311555862
-0.00471099787622
0.00398474740429
-0.00487295012559
0.00354078308427
-0.00503666953447
0.00316777422654
-0.00520793605013
0.00285046852412
-0.00538772712757
0.00257657556354
-0.00557445629989
0.00233643113686
-0.00576532871552
0.00212250180548
-0.00595717744968
0.00192913788071
-0.00614693176109
0.00175224676337
-0.00633185203102
0.00158891968054
-0.00650963276254
0.00143710476425
-0.00667842771915
0.00129535021177
-0.00683683135666
0.00116261086943
-0.0069838366033
0.00103810795059
-0.00711878224358
0.000921229185843
-0.00724129714988
0.000811460233569
-0.00735124636231
0.000708338930805
-0.0074486811313
0.000611425946997
-0.00753379386938
0.000520286211907
-0.00760687790872
0.000434477797575
-0.0076682922691
0.000353546036137
-0.00771843076556
0.000277021774179
-0.00775769764091
0.000204423605278
-0.00778648531845
0.000135262232609
-0.00780517198559
6.90511103917e-05
-0.00781410803554
5.31051773852e-06
-0.00781373720678
-5.63984802813e-05
-0.00780439413955
-0.000116590446574
-0.00778343497436
-0.000176525389562
-0.00775028374528
-0.000236000846572
-0.00770488894541
-0.000295291395766
-0.00764732192695
-0.00035461522936
-0.00757815617082
-0.000414119365623
-0.00749812384313
-0.000473837348387
-0.00740797116439
-0.000533634713398
-0.00730852812099
-0.000593369797515
-0.00720074257391
-0.000653007251006
-0.00708561106385
-0.000712602848943
-0.00696408489413
-0.000772264463864
-0.00683699741593
-0.000832145994068
-0.00670500726576
-0.000892449208649
-0.00656855594591
-0.000953411874295
-0.00642784567385
-0.0010152823946
-0.00628284692007
-0.00107829202048
-0.00613333524105
-0.00114262821189
-0.00597895479543
-0.00120841366861
-0.00581929770292
-0.00127569239357
-0.00565398749495
-0.00134442681665
-0.00548274945908
-0.00141450582078
-0.00530545448312
-0.00148576224973
-0.00512212481898
-0.00155799661716
-0.0049329049435
-0.00163099808092
-0.00473800394667
-0.00170456873056
-0.00453764160451
-0.00177853347213
-0.00433200770868
-0.00185277900206
-0.00412127908271
-0.00192727984215
-0.00390566025371
-0.00200220890954
-0.00368546511866
-0.0020780407043
-0.00346116520162
-0.00215572433885
-0.00323334318904
-0.00223689152864
-0.00300257911657
-0.00232384301809
-0.00276914932212
-0.00241966093744
-0.00253275109227
-0.00252760534876
-0.00229217808184
-0.00265088917891
-0.00204534731438
-0.00279007075843
-0.00178951514323
-0.00294498154253
-0.00152264860442
-0.00310215509966
-0.00124274393053
-0.00326571849541
-0.000956923658291
-0.00336032731858
-0.000661086789994
-0.00354412954225
-0.000432275134472
-0.00326470592912
-5.62895755631e-05
-0.00542511749872
-0.00452042866637
0.000214093498783
0.00982911756031
-0.00144151546809
0.00564620285233
-0.00288943997415
0.00874710237601
-0.00343680826161
0.00709516490573
-0.00376816288338
0.00610130148264
-0.00397789831314
0.00532767667255
-0.00413033557608
0.00466555319363
-0.00427164468872
0.00412606120412
-0.0044218231147
0.00369096684426
-0.00458729231911
0.00333324838122
-0.00476865228812
0.00303183187906
-0.00496353864248
0.00277146400958
-0.00516815509355
0.00254104797807
-0.00537823603902
0.00233258174006
-0.00558963233274
0.00214053141669
-0.00579860500542
0.00196121508276
-0.00600195053493
0.00179225901526
-0.00619703740543
0.00163218375079
-0.00638178985071
0.00148009302553
-0.00655464100958
0.00133545087902
-0.0067144723349
0.00119792669554
-0.00686054743709
0.00106729052723
-0.00699244674768
0.000943344696143
-0.00711000611669
0.000825882538124
-0.00721326124802
0.000714664443515
-0.00730239736341
0.000609404926322
-0.00737770382769
0.000509766093211
-0.00743953290304
0.000415356239911
-0.00748826321742
0.000325732496849
-0.00752426772771
0.000240407912768
-0.00754789024431
0.000158864044
-0.00755942232494
8.05624224465e-05
-0.00755911103834
4.97867738674e-06
-0.00754712401874
-6.84052212451e-05
-0.00752389472572
-0.000139838320049
-0.00749084445304
-0.000209592466333
-0.00744835352908
-0.000278506501131
-0.00739659517422
-0.00034706200438
-0.00733564054707
-0.000415579528869
-0.00726548965988
-0.000484277212745
-0.0071861069555
-0.000553224201333
-0.00709740258503
-0.000622340490422
-0.00699929574809
-0.00069147515915
-0.00689180186593
-0.000760496962073
-0.00677507231888
-0.000829325386915
-0.00664939859317
-0.000897928627418
-0.00651520483377
-0.000966327539977
-0.0063730317672
-0.00103460778011
-0.00622350387607
-0.00110292296132
-0.00606728284077
-0.00117148474567
-0.00590501334795
-0.00124054100099
-0.00573727232997
-0.00131034733375
-0.00556452916841
-0.00138113367962
-0.00538712577413
-0.00145307181433
-0.00520527986691
-0.00152624812359
-0.00501911093349
-0.00160064990213
-0.00482868244727
-0.00167616588146
-0.00463404421133
-0.00175261024189
-0.00443526901099
-0.00182974907657
-0.00423245544643
-0.00190735852649
-0.00402572818062
-0.00198523711636
-0.0038151934616
-0.00206329044227
-0.00360095010859
-0.00214149912289
-0.00338307514361
-0.00222005943961
-0.00316170285211
-0.00229938674151
-0.00293709444468
-0.00238030543557
-0.0027096465646
-0.00246431069598
-0.00247996689136
-0.00255349396726
-0.00224868441431
-0.00265091461182
-0.00201646615702
-0.00275979397586
-0.00178355507842
-0.00288376860194
-0.00155012349455
-0.00302346900741
-0.00131674596161
-0.00317832721638
-0.00108530010421
-0.00333357816951
-0.000857245982582
-0.00349376310464
-0.000640689950361
-0.0035768870126
-0.000433333907316
-0.00375148467359
-0.000301050975646
-0.00339704844205
-3.87061934099e-06
-0.00572227623158
-0.00452433748616
0.000112073336809
0.00971700625169
-0.00176094424115
0.00751915197564
-0.00290923264186
0.00989532560548
-0.00321402063344
0.00739990669094
-0.00343860496173
0.00632585850614
-0.00358778417134
0.00547684393011
-0.00371653424178
0.00479430235226
-0.0038563615334
0.00426589280279
-0.00401658733885
0.00385119912628
-0.00419820625024
0.0035148731968
-0.0043988305744
0.00323246114191
-0.00461423443852
0.00298687114915
-0.00483948633249
0.00276630189214
-0.00506962865759
0.00256272451902
-0.00530010190578
0.00237100385032
-0.00552692997032
0.00218804076504
-0.00574677771508
0.0020121030157
-0.00595695338243
0.00184235414358
-0.00615536855473
0.00167850163763
-0.00634047767074
0.00152055215495
-0.00651120827009
0.00136864846758
-0.00666688911467
0.00122296163189
-0.00680718027606
0.00108362544093
-0.00693200998551
0.000950701157534
-0.00704151793333
0.000824160778657
-0.00713600419156
0.000703879027332
-0.00721588121095
0.000589630544732
-0.00728162898764
0.000481091030048
-0.00733375221977
0.000377842446182
-0.00737274435182
0.000279386513223
-0.00739905338165
0.000185159637912
-0.007413069637
9.45655443442e-05
-0.00741509313316
6.99006102392e-06
-0.00740537642896
-7.81328020087e-05
-0.00738381258752
-0.00016141120264
-0.00734977823997
-0.000243633645007
-0.00730316114323
-0.000325127914684
-0.00724394652662
-0.000406278311924
-0.0071722534373
-0.000487271796836
-0.0070883777597
-0.000568149537333
-0.00699276016358
-0.000648836200915
-0.00688593596078
-0.000729156764851
-0.00676850991086
-0.000808891199094
-0.00664114901047
-0.000887845621443
-0.00650456297271
-0.000965897201218
-0.00635946942874
-0.00104300583089
-0.00620656390473
-0.00111921489639
-0.00604650211287
-0.00119464949137
-0.00587989353617
-0.00126950987063
-0.00570729981805
-0.00134405520003
-0.00552923609896
-0.00141858021101
-0.00534617138861
-0.00149338636848
-0.00515852751446
-0.00156875105463
-0.00496667516192
-0.00164489701708
-0.00477093096047
-0.00172196481061
-0.00457155581237
-0.00179999743546
-0.00436876476652
-0.00187892935796
-0.00416273349447
-0.00195861408193
-0.00395362889835
-0.00203882661572
-0.00374159475142
-0.002119365388
-0.00352679405189
-0.00220001061229
-0.00330933502174
-0.00228072131794
-0.0030893339131
-0.00236147118227
-0.00286681703107
-0.00244254567384
-0.00264183233574
-0.0025243387719
-0.00241453517891
-0.00260756804322
-0.00218518870695
-0.0026936218871
-0.00195426153906
-0.00278438658691
-0.00172238299395
-0.00288276008377
-0.00149108317354
-0.00299106129007
-0.00126161471186
-0.00311320352777
-0.00103634284697
-0.00324870548759
-0.000820009742633
-0.00339463154881
-0.000618810087917
-0.00353475449393
-0.000440270448763
-0.00367230591984
-0.000287509012997
-0.00372964978045
-0.000190531834712
-0.00384849036375
-0.000132274273361
-0.0034552888472
0.000118836410309
-0.00597346357503
-0.00440551937837
5.83360380968e-06
0.00971100511778
-0.00197071430567
0.00949559221436
-0.00277386429708
0.0106984009035
-0.00290919493487
0.00753518362736
-0.00308577267666
0.00650240395735
-0.00321038914224
0.00560144640765
-0.00333923141393
0.00492314252452
-0.00349067944478
0.00441734550659
-0.00366752943014
0.00402805550002
-0.00386797844694
0.00371532841369
-0.00408796929781
0.0034524564275
-0.00432219517607
0.00322109997324
-0.00456513021328
0.00300923808717
-0.00481148651469
0.00280908072622
-0.00505655835526
0.00261607409406
-0.00529632585131
0.00242780552847
-0.0055274659732