/*--------------------------------*- C++ -*----------------------------------*\
| =========                 |                                                 |
| \\      /  F ield         | OpenFOAM: The Open Source CFD Toolbox           |
|  \\    /   O peration     | Version:  v1806                                 |
|   \\  /    A nd           | Web:      www.OpenFOAM.com                      |
|    \\/     M anipulation  |                                                 |
\*---------------------------------------------------------------------------*/
FoamFile
{
    version     2.0;
    format      ascii;
    class       surfaceScalarField;
    location    "400";
    object      phia;
}
// * * * * * * * * * * * * * * * * * * * * * * * * * * * * * * * * * * * * * //

dimensions      [0 3 -1 0 0 0 0];
oriented        oriented;


internalField   nonuniform List<scalar> 
12640
(
-0.00251821523507
0.00251866047669
-0.00551947214515
0.00300187011047
-0.00842309456948
0.00290427198801
-0.0103259020528
0.00190337906222
-0.0112363548425
0.000911180123735
-0.0123954309432
0.00115978513149
-0.0133265787191
0.00093170401516
-0.0140976834626
0.000771575927983
-0.0147407455687
0.000643493424011
-0.0152711091696
0.000530770715856
-0.0157092196834
0.000438493534775
-0.0160724017289
0.000363553412021
-0.0163734150879
0.000301372685617
-0.0166221116983
0.000249056058566
-0.0168266654517
0.000204912357698
-0.0169939769371
0.000167679171507
-0.0171298422196
0.000136240304029
-0.017239065137
0.000109613013912
-0.017325617229
8.69551264991e-05
-0.0173927541268
6.75588840717e-05
-0.0174431485238
5.08331347433e-05
-0.0174789770683
3.62887003416e-05
-0.0175020234951
2.35259193466e-05
-0.0175137417427
1.22206517075e-05
-0.0175153331758
2.11487296528e-06
-0.0175077890963
-6.99692480293e-06
-0.0174919466246
-1.52732052668e-05
-0.0174685171316
-2.28361530226e-05
-0.0174381271175
-2.97738302956e-05
-0.0174013483785
-3.61384567199e-05
-0.0173587503386
-4.19344169917e-05
-0.0173111063252
-4.69564006095e-05
-0.0172597292507
-5.06653481404e-05
-0.0172071858928
-5.18072984702e-05
-0.0171518672811
-5.45587428515e-05
-0.0170642771097
-8.68089444507e-05
-0.0169332199736
-0.000130254671381
-0.0167655126502
-0.000166887206387
-0.0165788974845
-0.000185777643645
-0.0163797840477
-0.00019826269821
-0.0161729305868
-0.00020598942478
-0.0159612602337
-0.000210798366822
-0.015746625463
-0.000213754871757
-0.0155302774717
-0.00021546629249
-0.0153131401131
-0.000216253875486
-0.0150959914403
-0.000216269918311
-0.0148795409125
-0.000215576385752
-0.0146644885927
-0.000214189364998
-0.0144515463093
-0.000212090171647
-0.0142414791227
-0.000209232245882
-0.0140351178008
-0.000205542887323
-0.013833392777
-0.000200928916455
-0.0136373365543
-0.000195281373654
-0.0134481033806
-0.000188484709772
-0.0132669517844
-0.000180427975738
-0.0130952364533
-0.000171020888884
-0.0129343570261
-0.000160212109069
-0.0127857096838
-0.000148010683558
-0.0126505944166
-0.000134506681386
-0.0125301252571
-0.000119891436907
-0.0124251034655
-0.000104471805234
-0.0123359031583
-8.86801888613e-05
-0.0122623350271
-7.30742427178e-05
-0.0122035378512
-5.83311107964e-05
-0.0121578627018
-4.5232941777e-05
-0.012122796561
-3.46490344931e-05
-0.0120948776495
-2.75229568331e-05
-0.0120696617545
-2.48421166595e-05
-0.0120416248281
-2.76813591942e-05
-0.0120042329132
-3.70542728952e-05
-0.0119496053145
-5.43041281192e-05
-0.0118693671815
-7.99246198226e-05
-0.011752636172
-0.000116428376517
-0.0115933122022
-0.000159018088579
-0.0113713849792
-0.000221639831657
-0.0111024843788
-0.00026859976079
-0.0106387743516
-0.000463426754417
-0.0100214416274
-0.00061708534249
-0.00680506915939
-0.0032156508835
-0.00680481225949
-0.000996561909557
0.00351606350833
-0.00352721641907
0.00553348913793
-0.00523584029774
0.00461374953363
-0.0075452888322
0.00421329036602
-0.0101024551474
0.00346866809821
-0.0119108199257
0.00296838623478
-0.0135713469598
0.00259245413987
-0.0151211567746
0.00232159286532
-0.0165712379514
0.00209378545111
-0.0179277146721
0.00188744822678
-0.019187121006
0.00169809876739
-0.0203481443565
0.00152476722116
-0.0214130270175
0.00136644368078
-0.0223861982416
0.00122241293167
-0.0232731998468
0.00109210090073
-0.0240800498271
0.0009747197626
-0.02481282635
0.000869212502284
-0.0254773934865
0.000774384858469
-0.0260792528637
0.00068902745059
-0.0266234608637
0.000611993062618
-0.0271146151131
0.000542224292488
-0.0275568486091
0.000478775564361
-0.0279538652386
0.000420808558123
-0.0283089565198
0.000367596855953
-0.0286250508045
0.00031850815694
-0.0289047314423
0.000273003470007
-0.0291502868646
0.000230617133785
-0.029363722897
0.000190956968306
-0.0295468162683
0.000153692660638
-0.0297011094655
0.000118551021637
-0.029827977168
8.53461712937e-05
-0.0299283744938
5.38775938191e-05
-0.0300030064224
2.44207850893e-05
-0.0300526948882
-1.64121397872e-06
-0.0300961346789
-1.06247287973e-05
-0.0301835468869
1.11820318625e-06
-0.0302805283455
-3.27455547948e-05
-0.0303434017018
-0.000103470320279
-0.0303671688241
-0.000161457178503
-0.0303484086745
-0.000216457874662
-0.0302834237268
-0.000270402753406
-0.0301705234844
-0.000323120377374
-0.0300085245237
-0.000375172868736
-0.0297961653679
-0.000427243396334
-0.0295320554976
-0.000479783183449
-0.0292147173385
-0.000533031972877
-0.0288426171036
-0.000587106193807
-0.0284141968063
-0.000642048851347
-0.0279279017587
-0.000697833952976
-0.0273822310713
-0.000754365709639
-0.0267757865226
-0.000811463065435
-0.0261073539915
-0.000868854556702
-0.0253759865764
-0.000926157327241
-0.0245811293517
-0.000982870254324
-0.0237227489641
-0.00103835385666
-0.0228015051395
-0.00109183113299
-0.0218189201414
-0.0011423815923
-0.0207775732289
-0.00118896309205
-0.0196812693736
-0.00123043417417
-0.0185351965225
-0.00126560811747
-0.0173460188505
-0.00129331075508
-0.0161219131124
-0.00131246582843
-0.0148725050237
-0.00132217826653
-0.0136087180788
-0.00132183045199
-0.0123425145939
-0.00131116291156
-0.0110865576751
-0.00129034644767
-0.00985379909721
-0.0012600341121
-0.00865703044378
-0.00122137487218
-0.00750842525919
-0.00117606060659
-0.00641907685192
-0.00112618500588
-0.00539857806626
-0.00107459093239
-0.00445459458811
-0.00102370037031
-0.00359242876709
-0.000978384603384
-0.00281463342976
-0.000936608975431
-0.00211887928597
-0.000917178486233
-0.0015013859687
-0.000885902649805
-0.000928455373695
-0.00103615016523
-0.000416846889749
-0.00112843652584
0.000439290482321
-0.00407161121097
-0.00636528450266
-0.00451880009115
0.0080352974417
-0.00594618765808
0.00696141749001
-0.0060474761126
0.00471535761387
-0.00625695724805
0.00442300364389
-0.00681506867526
0.00402695522669
-0.00755253308408
0.00370599036387
-0.00845795207195
0.00349798613073
-0.00942474334003
0.00328848637788
-0.0103714509595
0.00304058672478
-0.011253058545
0.00276914432234
-0.0120492070934
0.00249432818977
-0.0127534899964
0.00222912364868
-0.0133674664123
0.00198048616338
-0.0138967534366
0.00175175884202
-0.0143486248355
0.00154402606089
-0.0147307426498
0.00135688608436
-0.0150505206013
0.00118903689809
-0.0153148131482
0.0010387209764
-0.0155297721917
0.000904030967944
-0.015700817039
0.000783081805562
-0.0158326545826
0.000674109253191
-0.0159293386812
0.000575508554113
-0.0159943311705
0.000485855692632
-0.0160305766023
0.000403900182098
-0.016040563915
0.000328560987582
-0.016026395574
0.000258905405643
-0.0159898394063
0.00019414043416
-0.0159323871784
0.000133590250719
-0.0158552937999
7.66952529077e-05
-0.015759627556
2.29877252586e-05
-0.0156463125869
-2.78546431588e-05
-0.0155162106031
-7.61026106171e-05
-0.0153698413997
-0.000121815122749
-0.0152038681989
-0.000167472980528
-0.0149914924699
-0.000222849610717
-0.0147394019733
-0.000250816966899
-0.0145050341187
-0.000266952131803
-0.0143027977426
-0.000305543080306
-0.0141242420386
-0.000339845753129
-0.0139711758441
-0.000369356077631
-0.0138441573605
-0.000397252348247
-0.013742855516
-0.000424254188152
-0.0136673141103
-0.000450548054158
-0.0136178391468
-0.000476554581601
-0.0135946594479
-0.000502803357419
-0.0135977219002
-0.000529813685808
-0.0136265779019
-0.000558100555177
-0.0136802856052
-0.000588196003537
-0.0137573221392
-0.00062065978837
-0.0138554887129
-0.000656066324489
-0.0139718295576
-0.000694997569501
-0.0141025440706
-0.000738020105729
-0.0142429192007
-0.000785670445971
-0.014387262126
-0.000838419849632
-0.0145288694227
-0.000896646794038
-0.014660016518
-0.00096058789236
-0.0147720101757
-0.00103029868873
-0.0148552897241
-0.0011055971719
-0.0148996186232
-0.00118602478994
-0.0148943459398
-0.00127080239376
-0.0148287650925
-0.00135881792754
-0.0146925317376
-0.00144862666171
-0.0144761428751
-0.00153849797999
-0.0141714175719
-0.00162648656444
-0.0137719599877
-0.00171055307994
-0.0132735372148
-0.00178870038201
-0.0126743527299
-0.00185914985314
-0.011975176778
-0.00192047928574
-0.0111793166646
-0.00197184738802
-0.01029245228
-0.00201297088169
-0.00932224069725
-0.0020447190838
-0.00827786736988
-0.002067980575
-0.00716860748075
-0.00208754597985
-0.00600338152255
-0.00210171979947
-0.00478620326127
-0.00213424747362
-0.0035284717835
-0.00214350734793
-0.00223732076438
-0.002327194526
-0.0010599947938
-0.00230570644452
-1.25475002372e-05
-0.0051187831832
-0.00637784616746
-0.00900744602377
0.0170437413375
-0.00616161167834
0.0041159427794
-0.00486699592051
0.00342094682384
-0.00498192349182
0.00453808423585
-0.0058173800995
0.00486252682374
-0.00697593354147
0.00486462331813
-0.0082088228997
0.00473093154492
-0.00938613072035
0.00446583418778
-0.0104586987965
0.00411318446057
-0.0114175026833
0.00372796790904
-0.0122690234741
0.00334585819149
-0.0130248996114
0.00298499790683
-0.0136979774464
0.00265354953789
-0.0143003926849
0.00235414796591
-0.0148426932818
0.00208628744989
-0.0153336555362
0.00184779826426
-0.0157804429435
0.00163576183275
-0.0161888476929
0.00144705388346
-0.016563540322
0.00127864063189
-0.0169082841283
0.00112773502154
-0.0172261299309
0.000991854836024
-0.0175195664435
0.000868838981968
-0.0177906525444
0.000756827607119
-0.018041110921
0.000654240174751
-0.0182724134485
0.000559738492902
-0.0184858367716
0.000472201032808
-0.0186825158812
0.000390686556503
-0.0188634772998
0.000314417330117
-0.0190296596604
0.000242739088972
-0.0191819466309
0.000175135674785
-0.0193210459972
0.000111102110549
-0.0194476495865
5.0358339855e-05
-0.0195617599989
-7.85008633703e-06
-0.019667563521
-6.18162897999e-05
-0.019780843766
-0.000109720713109
-0.0198465856741
-0.000185229359837
-0.0198604374286
-0.000253260001946
-0.0198379528906
-0.00032819116635
-0.0197727222233
-0.000405245234258
-0.019662999609
-0.000479252121606
-0.0195099834512
-0.000550446831263
-0.0193147904375
-0.0006196304965
-0.019078550755
-0.000686975062032
-0.0188027774019
-0.000752519992836
-0.0184894009642
-0.000816374436652
-0.018140748618
-0.00087866451321
-0.017759560984
-0.000939487284446
-0.0173490363158
-0.000998922112938
-0.0169128512868
-0.00105704453405
-0.0164551729588
-0.00111394477433
-0.0159806333518
-0.0011697330881
-0.015494289762
-0.00122455785437
-0.015001533731
-0.00127861405208
-0.0145079715064
-0.0013321657852
-0.0140192368568
-0.00138555655496
-0.013540763962
-0.00143923020832
-0.0130774884779
-0.00149373351263
-0.0126335172057
-0.00154972071062
-0.0122117528147
-0.00160793046929
-0.0118135331416
-0.00166915535552
-0.0114382933704
-0.00173417955509
-0.0110833234108
-0.00180370980672
-0.0107436363449
-0.00187828645471
-0.0104120094007
-0.00195820551115
-0.0100791925635
-0.00204344961232
-0.00973431064397
-0.002133651671
-0.00936541562903
-0.00222810127162
-0.00896018334191
-0.00232575664237
-0.00850668638484
-0.0024253755197
-0.0079942575787
-0.00252541784943
-0.00741429234736
-0.00262468616153
-0.00676122853878
-0.00272103204549
-0.00603267449785
-0.00281606840698
-0.00523081669051
-0.00290353899054
-0.00435828650849
-0.00300671777868
-0.00342950208004
-0.00307224409989
-0.00244460889877
-0.00331203140174
-0.00150450246151
-0.0032456993676
-0.000447583253016
-0.0061757648457
-0.00682537354261
-0.00218236234192
0.0192262474995
-0.00114203820317
0.00307576747943
-0.00246523638143
0.00474427854642
-0.00414636346942
0.0062193194066
-0.00573016360753
0.00644640848972
-0.00716743007961
0.00630194797032
-0.00839985343673
0.00596339333186
-0.00942388604368
0.00548989137324
-0.0102744121123
0.00496372384382
-0.0109895711801
0.00444313069114
-0.0115995065001
0.003955787301
-0.0121268046034
0.00351227890005
-0.0125882029979
0.0031149194396
-0.0129958305565
0.00276173414902
-0.0133582809882
0.00244868401935
-0.0136815874213
0.00217103685684
-0.0139700051013
0.00192409895149
-0.0142265851547
0.00170353917849
-0.0144535656474
0.00150551405309
-0.0146526411359
0.00132668959397
-0.0148251369834
0.00116421822192
-0.0149721296256
0.00101568598506
-0.015094517332
0.000879059061187
-0.0151930711233
0.000752625348104
-0.0152684595119
0.000634948625291
-0.0153212699398
0.000524821685621
-0.0153520153253
0.000421233437056
-0.015361140074
0.000323332801586
-0.0153490249585
0.000230406579334
-0.0153159635163
0.000141846442529
-0.0152622347541
5.71376557573e-05
-0.0151879020831
-2.42200653658e-05
-0.0150932307835
-0.000102775294502
-0.0149754639299
-0.00017984721068
-0.0148341219713
-0.000251336767666
-0.0147082814971
-0.000311353572665
-0.014590622876
-0.000371210584991
-0.0144884767767
-0.000430637937872
-0.0144027303717
-0.000491300007672
-0.014330617057
-0.000551681000984
-0.0142700477059
-0.000611338321899
-0.0142191077711
-0.000670897661741
-0.0141754742877
-0.000730940566333
-0.014136454717
-0.000791873969314
-0.0140990715661
-0.000854094368177
-0.0140600642147
-0.000918007866634
-0.0140159011726
-0.000983985817074
-0.0139628232602
-0.00105233133376
-0.0138969258583
-0.00112326960304
-0.0138142584432
-0.00119693228753
-0.0137109581286
-0.00127334675287
-0.0135833991705
-0.00135241949471
-0.0134283730552
-0.00143393329342
-0.0132432726227
-0.00151754611487
-0.0130262863248
-0.00160281092084
-0.0127765654547
-0.0016892040818
-0.0124943589176
-0.00177617964612
-0.0121810694531
-0.00186323368871
-0.01183922028
-0.00194998891594
-0.0114722917993
-0.00203627676314
-0.0110844316645
-0.00212221814022
-0.010680028143
-0.00220827564286
-0.0102631864406
-0.00229527601072
-0.00983714248378
-0.00238438145812
-0.00940368987353
-0.00247701971088
-0.00896268552214
-0.00257475786558
-0.00851170849921
-0.00267916564045
-0.00804594401002
-0.00279159314438
-0.00755834094741
-0.00291303611082
-0.00704012725987
-0.00304367327954
-0.00648167454505
-0.00318316554161
-0.00587409966711
-0.00332861648843
-0.00521087997345
-0.00347928630664
-0.00449165813383
-0.00362274128349
-0.00372086091705
-0.0037774974643
-0.00291940338499
-0.00387366649339
-0.00208804500169
-0.00414336629293
-0.00131335261417
-0.00402043668753
-0.000343293547538
-0.007145736127
-0.00716872489577
-0.00016665945418
0.0193932703606
-0.000430096484508
0.00333935013173
-0.00289348476906
0.0072077599984
-0.00494995036075
0.00827585976853
-0.00652610240146
0.0080226200249
-0.00776322875325
0.00753911864827
-0.00871615951181
0.00691635608225
-0.00945483174717
0.006228585169
-0.0100497890916
0.00555869484575
-0.0105511632643
0.00494451095685
-0.0109903805512
0.00439500313797
-0.0113868668656
0.00390875539094
-0.0117524633951
0.00348049655358
-0.012094080674
0.00310332170394
-0.0124155129489
0.00277007477727
-0.0127186875833
0.00247415808622
-0.0130044790182
0.0022098236643
-0.0132732089546
0.00197218961659
-0.0135249465802
0.00175715805105
-0.0137596766052
0.00156131289331
-0.0139773932737
0.00138181373518
-0.0141781429741
0.00121630147548
-0.0143620457358
0.00106281320164
-0.0145292974433
0.000919715627654
-0.0146801715514
0.000785647088448
-0.0148150127926
0.000659474796635
-0.0149342368397
0.000540255370323
-0.0150383248391
0.000427206406314
-0.015127823678
0.000319677105254
-0.0152033438673
0.000217125955755
-0.0152655639141
0.000119103029197
-0.0153152898955
2.52389996922e-05
-0.0153537423374
-6.46034155914e-05
-0.0153834938555
-0.000150390031837
-0.015393456457
-0.000241681981839
-0.0153724877703
-0.000332640338234
-0.0153219530197
-0.000422073587497
-0.0152418365323
-0.000511091709077
-0.0151341394984
-0.000599342370263
-0.0150003579458
-0.000685814931234
-0.0148422800495
-0.000769773895139
-0.0146623283522
-0.000851211478211
-0.0144632346401
-0.00093039843087
-0.0142478532984
-0.00100762078036
-0.0140190982234
-0.00108321334832
-0.0137798583312
-0.00115760955223
-0.0135328741551
-0.00123132653613
-0.0132806173832
-0.00130493905173
-0.0130251737797
-0.00137905536934
-0.0127681424153
-0.00145429691926
-0.0125105442341
-0.00153126626382
-0.0122527605272
-0.00161051275012
-0.0119944988209
-0.00169249003552
-0.0117348078736
-0.00177751803281
-0.0114721382618
-0.0018657451464
-0.0112044659799
-0.00195712536458
-0.0109294676667
-0.00205140958859
-0.010644749919
-0.00214816671682
-0.0103481020385
-0.00224683453903
-0.0100377500299
-0.00234681018414
-0.00971256004342
-0.0024475725039
-0.00937215295637
-0.00254883129032
-0.00901687938022
-0.00265068191437
-0.00864763424926
-0.00275374375287
-0.00826549926921
-0.00285925645063
-0.00787125326909
-0.00296909114938
-0.00746477956986
-0.00308571238553
-0.00704450158418
-0.00321193054165
-0.00660690842765
-0.00335067595517
-0.00614633975091
-0.00350427564567
-0.00565511362643
-0.0036744130131
-0.00512449864258
-0.00385924134137
-0.00454598832733
-0.0040577950598
-0.00391537159691
-0.00425335448003
-0.00323242707135
-0.00446042781784
-0.00251577087002
-0.00459031844829
-0.00176678389033
-0.00489234599977
-0.00109504711747
-0.00469213137444
-0.000218059406611
-0.00802283065365
-0.00738679151604
0.000378428320873
0.0190147321222
-0.00107387802486
0.00479165895256
-0.00395512313529
0.0100890425103
-0.00578795925364
0.0101087384865
-0.00701927823945
0.00925397979074
-0.00789627930384
0.00841615595932
-0.00852410358592
0.00754421026091
-0.00899970474451
0.00670421087477
-0.00939329637571
0.00595230558421
-0.00974460258296
0.00529583171583
-0.0100742807633
0.00472469073372
-0.0103924982694
0.00422697681991
-0.010703409092
0.00379140474071
-0.0110077447575
0.00340764710733
-0.0113044528486
0.00306676405753
-0.0115916872891
0.00276136396645
-0.0118673685106
0.00248546612362
-0.0121294853436
0.00223425637441
-0.0123762423595
0.00200385370353
-0.0126061188699
0.00179111573641
-0.0128178748726
0.00159348416101
-0.0130105334277
0.00140886157866
-0.013183349153
0.00123551825557
-0.0133357768293
0.00107201946179
-0.0134674383506
0.000917172421294
-0.0135780963617
0.00076998330078
-0.0136676283274
0.000629625375896
-0.013736008197
0.00049541081092
-0.0137832862615
0.000366766966465
-0.0138095810748
0.000243218743627
-0.013815042232
0.000124349266731
-0.0137998414404
9.80952978217e-06
-0.0137637695991
-0.00010091714891
-0.0137063381334
-0.000208077073708
-0.0136396454784
-0.000308642153141
-0.0135673258832
-0.000405236896178
-0.013490280519
-0.000499404377401
-0.0134098989619
-0.000591766071286
-0.0133264862812
-0.000683054187001
-0.0132392554551
-0.000773349599394
-0.0131467764399
-0.000862560423238
-0.0130474608324
-0.000950836229638
-0.012939678442
-0.00103849059441
-0.0128217834726
-0.00112582386499
-0.0126922068576
-0.00121309549602
-0.0125495582879
-0.00130055871653
-0.0123927033318
-0.00138847634425
-0.0122208130535
-0.00147711617013
-0.0120333972585
-0.0015667493419
-0.0118303123622
-0.00165764927443
-0.0116117453468
-0.00175008955795
-0.0113781672258
-0.00184433423318
-0.0111302634999
-0.0019406239677
-0.0108688416486
-0.00203915559912
-0.0105947290411
-0.00214005898864
-0.0103086696082
-0.00224337067407
-0.0100112394196
-0.0023490105853
-0.00970279607535
-0.00245676541592
-0.00938347989638
-0.00256629116391
-0.00905327339934
-0.00267714224293
-0.00871211535474
-0.00278884192915
-0.00836004672659
-0.00290099737355
-0.00799734951531
-0.00301346332777
-0.00762462747091
-0.00312653707539
-0.00724276971834
-0.0032411730148
-0.00685278126962
-0.00335912687192
-0.00645540850198
-0.00348312083139
-0.00605068240948
-0.00361668322073
-0.00563736644784
-0.0037640082836
-0.00521250335666
-0.0039291479975
-0.00477109710323
-0.00411581963384
-0.00430648174934
-0.0043238517124
-0.00381087976569
-0.00455338837905
-0.00327866038048
-0.00478556317522
-0.00270566975694
-0.00503341534898
-0.00210563282686
-0.0051903475273
-0.00147490859543
-0.00552306742414
-0.000938588124077
-0.00522851256773
-0.000165176532645
-0.00879624137012
-0.00755201805624
0.00042131794831
0.0185934675289
-0.00182856773088
0.00704155515657
-0.00467180769522
0.0129322906108
-0.00608688403508
0.0115238341747
-0.00696366805098
0.0101307897619
-0.00755071315969
0.00900322934441
-0.00796174672885
0.00795527249448
-0.00829082074796
0.00703331169054
-0.00859085900104
0.00625236891796
-0.00888557692046
0.0055905721362
-0.00918460885572
0.0050237428074
-0.00949055092064
0.00453293569037
-0.00980217553011
0.00410304232566
-0.0101163782205
0.00372185775714
-0.010429373019
0.00337976090316
-0.0107373480061
0.00306933408158
-0.0110367939649
0.00278489937821
-0.0113246529045
0.0025220941473
-0.0115983646711
0.00227753503777
-0.0118558548309
0.0020485659238
-0.0120954932086
0.00183307232116
-0.0123160397032
0.00162934760494
-0.012516590089
0.00143599728276
-0.0126965249631
0.00125187226818
-0.0128554670611
0.00107602114392
-0.012993244426
0.000907656256028
-0.0131098631072
0.000746128008483
-0.0132054831379
0.00059090338959
-0.0132804063646
0.00044155072169
-0.0133350553237
0.000297716477308
-0.0133699920164
0.000159122554107
-0.0133858694517
2.55120018752e-05
-0.0133836592503
-0.00010331423073
-0.0133640956172
-0.000227839398002
-0.0133229547871
-0.000349990782768
-0.0132598828724
-0.000468523658308
-0.0131757121276
-0.000583795962117
-0.0130716677933
-0.000696036320272
-0.0129495851043
-0.000805366426113
-0.0128113486796
-0.000911818231867
-0.0126587601695
-0.00101538213143
-0.0124936175701
-0.00111621201744
-0.012317674721
-0.00121466486712
-0.0121325118349
-0.00131121543536
-0.0119394318568
-0.00140639971813
-0.0117394040857
-0.00150080538317
-0.0115330325126
-0.00159505992551
-0.0113205484339
-0.00168980455303
-0.011101830689
-0.00178566238477
-0.0108764559339
-0.00188320961912
-0.010643771645
-0.00198294872305
-0.0104029849435
-0.002085284545
-0.0101532562887
-0.00219050430339
-0.00989378745633
-0.00229876381987
-0.00962389225026
-0.0024100809982
-0.00934304090384
-0.00252433612018
-0.00905087349404
-0.0026412794901
-0.00874718668274
-0.00276054128374
-0.00843190257127
-0.00288165231322
-0.00810504013646
-0.0030040700925
-0.00776670639341
-0.00312723005034
-0.00741712529184
-0.00325062213623
-0.00705670214012
-0.00337392030141
-0.00668610920933
-0.00349715364773
-0.00630632601962
-0.00362097138093
-0.00591865767986
-0.00374680080329
-0.00552451819651
-0.00387725914864
-0.00512519834548
-0.00401599442622
-0.00472140072595
-0.00416779302434
-0.00431285099254
-0.00433768021281
-0.00389789284537
-0.00453075785687
-0.00347361325428
-0.00474810907081
-0.00303614697596
-0.00499083467011
-0.0025830515638
-0.00523864521515
-0.00211176701079
-0.00550469403111
-0.00163543108842
-0.00566668555401
-0.0011450785889
-0.00601343081214
-0.000770872001674
-0.00560271297677
-0.000118260162624
-0.00944894208693
-0.0076703195352
0.000313552503515
0.0182797587593
-0.00252830424152
0.00988333913938
-0.0050374437789
0.0154414057939
-0.0059795723093
0.0124659602973
-0.00656883511049
0.0107200653113
-0.00696134311063
0.00939575913012
-0.00725423371532
0.00824818859234
-0.00752104699818
0.00730015195312
-0.00779279708036
0.00652414527859
-0.00807959735528
0.00587739795793
-0.00838343224773
0.00532760165093
-0.0087021756982
0.0048517015141
-0.00903149659645
0.00443238302762
-0.00936620383786
0.00405658170649
-0.00970107110594
0.00371464066461
-0.0100312592699
0.00339952978618
-0.0103525073265
0.0031061491023
-0.010661195857
0.00283077779736
-0.0109543377512
0.00257066488826
-0.0112295280847
0.00232373649753
-0.0114848753071
0.00208839171242
-0.0117189284306
0.00186336437589
-0.0119306079336
0.00164763174553
-0.0121191450246
0.00144035526789
-0.01228402978
0.00124084271078
-0.0124249688447
0.00104852273085
-0.012541851371
0.000862928511381
-0.0126347218442
0.000683682119923
-0.0127037612869
0.000510488654387
-0.0127492690928
0.000343112868052
-0.0127716630829
0.000181395451375
-0.0127714576697
2.51758753926e-05
-0.0127493606302
-0.000125551582836
-0.012706589215
-0.000270759673833
-0.0126464267442
-0.000410308151819
-0.0125698373253
-0.000545272308949
-0.0124777803683
-0.000676015768613
-0.0123710202612
-0.000802961662748
-0.0122501051504
-0.00092644836737
-0.0121154244026
-0.00104666606199
-0.0119672492114
-0.0011637238258
-0.011805857788
-0.00127776800998
-0.011631635493
-0.00138904896441
-0.0114450978433
-0.00149791085616
-0.0112468778539
-0.00160477264901
-0.0110377002534
-0.0017101300004
-0.0108183399406
-0.00181456058325
-0.0105895623048
-0.00191871498531
-0.0103520558586
-0.00202329339554
-0.0101063689556
-0.0021290122372
-0.00985286134389
-0.00223656261331
-0.00959167882898
-0.0023465635738
-0.00932275592969
-0.00245951350526
-0.00904584780165
-0.00257574801316
-0.00876058578638
-0.00269540860193
-0.00846654853514
-0.0028184287538
-0.00816333101143
-0.00294454224042
-0.00785060649182
-0.00307330139618
-0.00752815969208
-0.00320412533721
-0.00719590251193
-0.00333634479752
-0.00685386764703
-0.00346927376995
-0.00650221185037
-0.00360227936287
-0.00614122960137
-0.0037348955324
-0.00577142978496
-0.00386694007467
-0.0053935533978
-0.00399882602361
-0.0050087449625
-0.00413158173099
-0.00461834450837
-0.00426762608882
-0.00422400124435
-0.00441030064313
-0.00382730172673
-0.00456445417602
-0.00342972142053
-0.00473522042749
-0.00303217122799
-0.00492826931973
-0.00263530045095
-0.00514494418305
-0.00224023639398
-0.00538586993042
-0.00185038654315
-0.00562848045653
-0.00146817430112
-0.00588690324396
-0.00110906363359
-0.0060258079749
-0.000765778703766
-0.00635672079221
-0.000556029682112
-0.00581251951405
-3.56650567263e-05
-0.0099693702216
-0.00770602213113
0.000148287468759
0.0181314146717
-0.00306272056962
0.0130942947659
-0.00505093525979
0.0174295796659
-0.00558242765373
0.0129974369628
-0.00599623978625
0.0111338797831
-0.00628896922582
0.00968850315797
-0.00653933891068
0.00849858022301
-0.006796987007
0.00755782467348
-0.0070759375485
0.0068031215291
-0.00737862013114
0.00618010568415
-0.00770318073628
0.00565218693576
-0.00804513293109
0.0051936771175
-0.00839862583607
0.00478589802355
-0.00875748349721
0.00441545914155
-0.00911582747114
0.00407300165727
-0.00946838660833
0.00375210214901
-0.00981062170894
0.0034483931259
-0.0101387454477
0.00315890532057
-0.0104496802921
0.00288159796882
-0.010740985502
0.00261503379889
-0.0110107719581
0.00235816382377
-0.0112576184996
0.00211018972973
-0.0114804955003
0.00187048053304
-0.0116786993993
0.00163852365932
-0.0118517979551
0.00141389838457
-0.0119995861544
0.00119626047437
-0.012122051551
0.000985335864864
-0.0122193461923
0.000780910926179
-0.0122917712704
0.00058284019848
-0.0123397519519
0.000391012220601
-0.0123638737494
0.00020542845108
-0.0123647899192
2.59959961511e-05
-0.012343539782
-0.000146904544146
-0.0123001661304
-0.000314242360688
-0.0122343803461
-0.000476205795905
-0.0121471846038
-0.000632582098262
-0.0120396550928
-0.000783660491865
-0.0119131050362
-0.000929627506728
-0.0117689958977
-0.00107067280825
-0.0116087998081
-0.00120697632487
-0.0114339075783
-0.00133872808007
-0.0112456020459
-0.00146618274761
-0.011045058108
-0.00158969837363
-0.0108333342441
-0.00170973578762
-0.0106113611364
-0.0018268416653
-0.0103799413953
-0.0019416398362
-0.0101397574062
-0.00205482829123
-0.00989137834654
-0.00216717075671
-0.0096352623262
-0.00227947878012
-0.00937175244201
-0.00239258356464
-0.00910106985597
-0.00250729862916
-0.00882330544293
-0.00262437293559
-0.00853841806099
-0.00274443750556
-0.00824624177767
-0.00286795229423
-0.0079465092791
-0.00299516083681
-0.00763889279525
-0.00312605669391
-0.007323050652
-0.00326038810514
-0.00699869369166
-0.00339765441706
-0.00666562913073
-0.00353717920843
-0.00632380395442
-0.0036781520092
-0.00597330820032
-0.00381974576706
-0.00561438466974
-0.00396117215225
-0.00524740782983
-0.00410183571601
-0.00487295185299
-0.0042413531831
-0.00449169471564
-0.00438003414878
-0.00410481306265
-0.00451840869013
-0.00371354466111
-0.00465883541973
-0.00331968407536
-0.00480410266344
-0.00292511923569
-0.00495896158334
-0.00253275968965
-0.00512752765833
-0.00214554113575
-0.00531544022447
-0.00176755202872
-0.00552289268717
-0.00140600050707
-0.00574739505288
-0.00107089974006
-0.00596356533217
-0.000773187016572
-0.00618462704202
-0.00052121612274
-0.00627778603257
-0.000355718885121
-0.00652224932973
-0.000283649351364
-0.00588461934176
0.000154801134876
-0.0104078843534
-0.00755129021025
-2.22973511404e-05
0.0181535713408
-0.00340890287841
0.0164808035337
-0.00480519523089
0.0188258194132
-0.00505255481336
0.0132447686405
-0.00539021022616
0.0114715294356
-0.00564261286519
0.00994091485764
-0.00588865656529
0.00874464101455
-0.00615789961202
0.00782708872269
-0.00645484417165
0.00710008763267
-0.00677880712411
0.00650409013158
-0.00712607420165
0.00599947455304
-0.00749078838875
0.00555841121962
-0.00786617857149
0.00516130678862
-0.00824548134468
0.00479477908784
-0.00862246299778
0.00444999810916
-0.00899166297523
0.00412131419468
-0.00934847196238
0.00380521052313
-0.00968911164994
0.00349954942532
-0.0100105629579
0.00320304897477
-0.0103104703608
0.00291493596042
-0.010587042786
0.00263472553476
-0.0108389600263
0.00236209067723
-0.011065291079
0.00209678933022
-0.0112654246468
0.00183862901953
-0.0114390125145
0.00158745181628
-0.0115859236695
0.00134313108094
-0.0117062080308
0.00110557332726
-0.0118000686237
0.000874718472728
-0.0118678393393
0.000650551544646
-0.0119099702274
0.000433077838156
-0.0119270099215
0.00022239700977
-0.0119195884946
1.84981303312e-05
-0.0118883994784
-0.000178175177126
-0.0118344818608
-0.000368244735593
-0.0117588746519
-0.000551898818452