/*--------------------------------*- C++ -*----------------------------------*\
| =========                 |                                                 |
| \\      /  F ield         | OpenFOAM: The Open Source CFD Toolbox           |
|  \\    /   O peration     | Version:  v1806                                 |
|   \\  /    A nd           | Web:      www.OpenFOAM.com                      |
|    \\/     M anipulation  |                                                 |
\*---------------------------------------------------------------------------*/
FoamFile
{
    version     2.0;
    format      ascii;
    class       volVectorField;
    location    "400";
    object      U;
}
// * * * * * * * * * * * * * * * * * * * * * * * * * * * * * * * * * * * * * //

dimensions      [0 1 -1 0 0 0 0];


internalField   nonuniform List<vector> 
6400
(
(0.00923052254371 0.0191339622749 0)
(0.0228146010443 0.0125414466226 0)
(0.0296111740869 0.00931062597689 0)
(0.0285775545661 0.00766274059018 0)
(0.0231904472101 0.000279127606028 0)
(-0.00674316876409 -0.0144788591438 0)
(-0.0345511689469 -0.0158115741161 0)
(-0.0584349478802 -0.0148951657876 0)
(-0.0832059295463 -0.0143106192969 0)
(-0.107465796202 -0.0137086762276 0)
(-0.130958543406 -0.0130313816044 0)
(-0.153452123223 -0.0122961718451 0)
(-0.174788181276 -0.0115287905658 0)
(-0.194868828854 -0.010752555649 0)
(-0.213645689311 -0.00998591605762 0)
(-0.23110890391 -0.00924237045371 0)
(-0.247277232337 -0.00853105976958 0)
(-0.262189580401 -0.00785754533013 0)
(-0.275898056419 -0.0072245896494 0)
(-0.288462498526 -0.00663286309996 0)
(-0.299946323225 -0.00608154506917 0)
(-0.31041350118 -0.00556881211761 0)
(-0.319926454508 -0.00509221862824 0)
(-0.328544680017 -0.00464898264133 0)
(-0.336323925332 -0.00423619201749 0)
(-0.34331577038 -0.00385094640969 0)
(-0.349567499048 -0.00349044876239 0)
(-0.355122165344 -0.00315205814337 0)
(-0.360018781493 -0.00283331221934 0)
(-0.364292568818 -0.00253192468827 0)
(-0.367975236451 -0.00224576234495 0)
(-0.371095282207 -0.00197281037784 0)
(-0.373678263633 -0.00171110909889 0)
(-0.375746935496 -0.00145857358156 0)
(-0.377321009191 -0.00121262809051 0)
(-0.378416501471 -0.000969944423249 0)
(-0.379045320643 -0.00072700924833 0)
(-0.379217972605 -0.000481922515262 0)
(-0.37894647302 -0.000234674902999 0)
(-0.378227153879 1.03183224033e-05 0)
(-0.377074491693 0.000249464342331 0)
(-0.375500054636 0.00048247748324 0)
(-0.373514879933 0.000709978417727 0)
(-0.371128507706 0.000932896917258 0)
(-0.368348774366 0.00115225597815 0)
(-0.365181751325 0.00136909571695 0)
(-0.361631750152 0.00158444151273 0)
(-0.357701365346 0.00179928316757 0)
(-0.353391552971 0.00201455438595 0)
(-0.348701752017 0.00223110834603 0)
(-0.343630057399 0.00244968985679 0)
(-0.338173451917 0.00267090486398 0)
(-0.332328100656 0.00289519071399 0)
(-0.326089705576 0.00312278998534 0)
(-0.319453910915 0.00335373292545 0)
(-0.312416741795 0.00358783242472 0)
(-0.304975049795 0.00382469722355 0)
(-0.297126930527 0.00406376731213 0)
(-0.288872070269 0.00430437667586 0)
(-0.280211972217 0.0045458461824 0)
(-0.271150008245 0.00478760994296 0)
(-0.261691239505 0.00502937602723 0)
(-0.251841949679 0.00527132251852 0)
(-0.241608837507 0.00551432730925 0)
(-0.230997819383 0.00576023036863 0)
(-0.220012396172 0.00601212541848 0)
(-0.208651550119 0.00627467933826 0)
(-0.196907163291 0.00655446326055 0)
(-0.18476096824 0.00686027440828 0)
(-0.172181023593 0.00720341451209 0)
(-0.159117710922 0.0075978335859 0)
(-0.14549963952 0.00806003969493 0)
(-0.13123116139 0.00860838065739 0)
(-0.116193803746 0.00926031250861 0)
(-0.100246965113 0.0100255166876 0)
(-0.0832131963699 0.0108964090496 0)
(-0.0648883499038 0.0118435345031 0)
(-0.0453478057779 0.0127781551944 0)
(-0.0259638282974 0.0132199897669 0)
(-0.0103331867963 0.0109664610099 0)
(0.000366935817309 0.0285061366707 0)
(0.0118954474074 0.0152879976742 0)
(0.00901205213158 3.46293102551e-05 0)
(-0.0207549098749 -0.0211983142436 0)
(-0.0393285763397 -0.0294819902367 0)
(-0.0617387437715 -0.0352076429574 0)
(-0.0853982862875 -0.0368446742133 0)
(-0.109629331485 -0.0369232165325 0)
(-0.134296726172 -0.0364718564584 0)
(-0.158433106366 -0.0355329574912 0)
(-0.181686428622 -0.0341992316804 0)
(-0.203805401776 -0.032575370976 0)
(-0.224635831893 -0.0307580848237 0)
(-0.244091234744 -0.0288296611252 0)
(-0.262137195369 -0.0268562308108 0)
(-0.278778136633 -0.024888425274 0)
(-0.294046292608 -0.0229631058684 0)
(-0.307992667886 -0.02110552966 0)
(-0.320679860807 -0.0193315885945 0)
(-0.332176565895 -0.0176499105349 0)
(-0.342553522328 -0.0160637077217 0)
(-0.351880655925 -0.0145723249092 0)
(-0.36022516898 -0.0131724840175 0)
(-0.367650356431 -0.0118592494485 0)
(-0.37421496149 -0.0106267513849 0)
(-0.379972915871 -0.00946870919646 0)
(-0.384973345229 -0.0083787958136 0)
(-0.389260750142 -0.00735087715616 0)
(-0.39287529141 -0.00637915498363 0)
(-0.395853123087 -0.00545823372553 0)
(-0.398226731877 -0.00458313660617 0)
(-0.400025310724 -0.00374929081022 0)
(-0.40127520082 -0.00295243467057 0)
(-0.4020003212 -0.0021882340992 0)
(-0.402222044312 -0.00145157398003 0)
(-0.401957700857 -0.000736952325748 0)
(-0.401218245138 -4.19242950461e-05 0)
(-0.400032579835 0.000631774529548 0)
(-0.398426754099 0.00128441286187 0)
(-0.396432910025 0.00191838320507 0)
(-0.394062670843 0.00253393506542 0)
(-0.391326124492 0.00313282534645 0)
(-0.388230636475 0.00371728266729 0)
(-0.384781962667 0.00428972250889 0)
(-0.380984478244 0.00485262022671 0)
(-0.376841231659 0.00540845291342 0)
(-0.372353946969 0.0059596595128 0)
(-0.367523027997 0.00650859794192 0)
(-0.36234758896 0.00705749027537 0)
(-0.356825527235 0.00760835358738 0)
(-0.350953650205 0.00816291781687 0)
(-0.34472786482 0.00872253519811 0)
(-0.338143434467 0.00928808827812 0)
(-0.331195302055 0.00985990600271 0)
(-0.323878471384 0.0104376990603 0)
(-0.316188430706 0.0110205269902 0)
(-0.308121594006 0.0116068097737 0)
(-0.299675726789 0.012194396316 0)
(-0.290850315403 0.0127807008213 0)
(-0.281646832247 0.0133629156881 0)
(-0.272068845393 0.0139383062648 0)
(-0.262121919263 0.0145045896454 0)
(-0.2518132545 0.0150603961437 0)
(-0.241151019059 0.0156058089458 0)
(-0.230143330789 0.0161429725189 0)
(-0.218796857451 0.0166767610989 0)
(-0.207115006367 0.0172154980728 0)
(-0.19509570543 0.0177716865746 0)
(-0.18272880914 0.0183626856252 0)
(-0.169993115386 0.019011295695 0)
(-0.15685302133 0.0197460134757 0)
(-0.1432551287 0.0206006960789 0)
(-0.129125722531 0.0216129309838 0)
(-0.11437049394 0.022818328805 0)
(-0.0988752225869 0.0242361064797 0)
(-0.0825011087166 0.0258465785076 0)
(-0.0650868964782 0.0275686290083 0)
(-0.0465794412002 0.0291729045166 0)
(-0.0276736926213 0.0297760709778 0)
(-0.0112587951084 0.0264617045264 0)
(-0.00731873280428 0.0274528286915 0)
(-0.0142337682156 -0.00401507161467 0)
(-0.0341652663369 -0.0257794359076 -8.30333896372e-29)
(-0.0538579326906 -0.0401477653248 5.16666654788e-29)
(-0.0742761619032 -0.0504498670725 3.93156408822e-29)
(-0.0954802178266 -0.0575420418755 -3.21228693557e-29)
(-0.117216016926 -0.0605873918591 2.74752373335e-29)
(-0.139426026972 -0.0612163655998 -2.4435384398e-29)
(-0.161595640266 -0.0604851468996 0)
(-0.183115644091 -0.0587695768053 0)
(-0.203661766233 -0.0563503196565 0)
(-0.223023997334 -0.053449490531 0)
(-0.241091433523 -0.050247722694 0)
(-0.257819647296 -0.0468892125101 0)
(-0.273211116532 -0.0434853505174 0)
(-0.287300149018 -0.0401187236024 0)
(-0.30014143212 -0.0368475169528 0)
(-0.31180139674 -0.0337100053555 0)
(-0.322351897437 -0.0307288155627 0)
(-0.331865771085 -0.0279147356507 0)
(-0.340413872801 -0.0252699533742 0)
(-0.348063230783 -0.0227906937149 0)
(-0.354876016152 -0.0204692874852 0)
(-0.360909086128 -0.0182957380355 0)
(-0.366213907832 -0.016258868345 0)
(-0.370836730063 -0.014347131248 0)
(-0.374818901077 -0.0125491583588 0)
(-0.378197267269 -0.0108541100542 0)
(-0.381004602581 -0.00925187631619 0)
(-0.383270019866 -0.00773317334341 -6.89738664445e-29)
(-0.385019374976 -0.00628957565453 6.89149502111e-29)
(-0.386275644658 -0.00491349978913 0)
(-0.387059599997 -0.00359806313965 0)
(-0.387390561839 -0.00233660763098 0)
(-0.387285362217 -0.00112220505729 0)
(-0.386753414555 5.04632623237e-05 0)
(-0.38581493453 0.00117871842731 0)
(-0.384500406972 0.00226024136478 0)
(-0.382807999534 0.00330172988534 0)
(-0.380748129009 0.00430998259781 0)
(-0.378328700922 0.00529086521292 0)
(-0.375557374376 0.0062485414475 0)
(-0.372440674753 0.00718677517556 0)
(-0.368983947945 0.00810923820547 0)
(-0.365191325273 0.0090196049491 0)
(-0.361065687888 0.00992156391779 0)
(-0.356608630467 0.0108187875676 0)
(-0.351820439286 0.0117148706292 0)
(-0.346700100554 0.012613238327 0)
(-0.34124535425 0.0135170268887 0)
(-0.335452807288 0.0144289401483 0)
(-0.329318117297 0.01535109079 0)
(-0.322836254246 0.0162848375772 0)
(-0.316001841298 0.0172306349103 0)
(-0.308809568688 0.0181879130612 0)
(-0.30125466558 0.0191550106951 0)
(-0.293333405456 0.0201291805762 0)
(-0.285043611348 0.0211066895777 0)
(-0.276385118077 0.0220830308202 0)
(-0.267360141694 0.0230532620943 0)
(-0.257973502135 0.0240124770312 0)
(-0.248232644501 0.0249564106907 0)
(-0.238147406573 0.0258821720639 0)
(-0.227729485008 0.0267890930385 0)
(-0.216991565787 0.0276796688651 0)
(-0.205946098545 0.0285605641784 0)
(-0.194603683768 0.0294436710821 0)
(-0.18297106317 0.0303471603713 0)
(-0.17104881989 0.0312963259564 0)
(-0.158828721977 0.0323243531979 0)
(-0.146290715794 0.0334725353024 0)
(-0.133399911491 0.0347894277435 0)
(-0.120103663103 0.036328345428 0)
(-0.106328941014 0.0381401145569 0)
(-0.0919811270443 0.0402554336589 0)
(-0.0769438068085 0.0426521539157 0)
(-0.0610686999027 0.0452021576618 0)
(-0.0441888118891 0.0475249553851 0)
(-0.0266463973193 0.0483891901566 0)
(-0.0103187040654 0.0445252249599 0)
(-0.0182180871692 0.0132286545822 0)
(-0.0343282429094 -0.022578171334 0)
(-0.0538192077472 -0.0436097343481 0)
(-0.074127763955 -0.0596796480393 0)
(-0.0944959330087 -0.0709925561868 0)
(-0.114818364763 -0.078351393723 0)
(-0.135023016089 -0.0817437431554 0)
(-0.15503905868 -0.0823279005115 0)
(-0.174542671908 -0.0810225253132 0)
(-0.193225499317 -0.0783785990083 0)
(-0.210896857551 -0.0748170906841 0)
(-0.22744132925 -0.0706611202563 0)
(-0.242812478632 -0.0661625226667 0)
(-0.257011036133 -0.061514516759 0)
(-0.270068955573 -0.0568608873406 0)
(-0.282036762852 -0.0523041022589 0)
(-0.292974415596 -0.0479129926952 0)
(-0.302945029277 -0.0437299048891 0)
(-0.312010849542 -0.0397770825055 0)
(-0.3202308801 -0.0360621042944 0)
(-0.327659661968 -0.032582318837 0)
(-0.334346805619 -0.0293283203091 0)
(-0.340336982948 -0.026286575147 0)
(-0.345670178687 -0.0234413391221 0)
(-0.350382068417 -0.0207760083796 0)
(-0.354504447176 -0.0182740354864 0)
(-0.358065663986 -0.0159195192271 0)
(-0.361091040246 -0.0136975542101 0)
(-0.363603253611 -0.0115944089176 0)
(-0.365622663724 -0.0095975956981 0)
(-0.367167595083 -0.00769587469008 0)
(-0.368254693549 -0.00587915807769 0)
(-0.368899696225 -0.00413818548107 0)
(-0.369118110682 -0.00246407564341 0)
(-0.368922479445 -0.000848761566701 0)
(-0.368314114389 0.000712516335123 0)
(-0.367335167967 0.00221739739468 0)
(-0.36597808981 0.00366901559118 0)
(-0.364256034686 0.00507485733491 0)
(-0.362178094887 0.00643974448556 0)
(-0.359752635597 0.00776891467266 0)
(-0.356987154934 0.00906735701061 0)
(-0.353888131208 0.0103399579444 0)
(-0.35046096464 0.0115916009396 0)
(-0.34670991125 0.0128272221309 0)
(-0.342638009492 0.0140518174918 8.24640726941e-29)
(-0.338247008022 0.0152704042318 -8.31978767462e-29)
(-0.333537308964 0.0164879365464 0)
(-0.328507943237 0.0177091756877 0)
(-0.323156595391 0.0189385162577 0)
(-0.317479695162 0.0201797746637 0)
(-0.311472591102 0.0214359507371 0)
(-0.305129817628 0.0227089795043 0)
(-0.298445460596 0.0239994957492 0)
(-0.291413617967 0.0253066390427 0)
(-0.284028941703 0.0266279301291 0)
(-0.276287236204 0.0279592504525 0)
(-0.268186077989 0.0292949544571 1.20267936927e-28)
(-0.259725410937 0.0306281424832 -1.231882352e-28)
(-0.250908061316 0.0319511149713 0)
(-0.241740114251 0.0332560159938 0)
(-0.232231091475 0.0345356692468 0)
(-0.222393876738 0.0357845898099 0)
(-0.212244336762 0.0370001605819 0)
(-0.201800601443 0.0381839325929 0)
(-0.191082009019 0.0393429963475 0)
(-0.180107691095 0.0404914055157 0)
(-0.168894664628 0.0416517195425 0)
(-0.157455806309 0.0428559611091 0)
(-0.145797495252 0.0441468332078 0)
(-0.133916699373 0.0455783022924 0)
(-0.121798196475 0.0472145076349 0)
(-0.109411563902 0.0491273986866 0)
(-0.0967068382131 0.0513900300233 0)
(-0.0836104707701 0.0540593437469 0)
(-0.0700253613842 0.0571389930261 0)
(-0.0558096454932 0.0605086508546 0)
(-0.040678271513 0.063767840212 0)
(-0.024904655545 0.0654625614032 0)
(-0.00917774776447 0.0617867936606 0)
(-0.0248128513051 -0.0181367377544 0)
(-0.0412786237384 -0.0432694632403 0)
(-0.0631644540676 -0.0640922481272 0)
(-0.0843833034944 -0.0800759958663 0)
(-0.104741774521 -0.0911497438806 0)
(-0.124269700928 -0.0979322073279 0)
(-0.14304809246 -0.100878679985 0)
(-0.161105954857 -0.100917753862 0)
(-0.178325145417 -0.0988444238906 0)
(-0.194599866027 -0.0952629710277 0)
(-0.209870745567 -0.0906618932042 0)
(-0.224115656417 -0.085424394614 0)
(-0.237346521867 -0.0798464837023 0)
(-0.249597131931 -0.0741501390557 0)
(-0.260913490801 -0.0684955213059 0)
(-0.271346303014 -0.0629924788896 0)
(-0.280946116243 -0.0577112432459 0)
(-0.289760610528 -0.0526919675007 0)
(-0.297833412374 -0.0479528361584 0)
(-0.305203850223 -0.0434966485344 0)
(-0.311907206148 -0.0393159437431 0)
(-0.317975168918 -0.0353968436734 0)
(-0.32343631985 -0.0317218387676 0)
(-0.328316571573 -0.0282717430301 0)
(-0.332639532841 -0.0250270211944 0)
(-0.336426804931 -0.0219686562664 0)
(-0.339698226408 -0.0190786851799 0)
(-0.342472081122 -0.0163404962169 0)
(-0.344765264811 -0.0137389632842 0)
(-0.346593404622 -0.0112604912069 0)
(-0.347970995646 -0.0088930064276 -7.43518234781e-29)
(-0.348911800673 -0.00662578357085 7.46243467976e-29)
(-0.349429627172 -0.00444889978073 0)
(-0.34953810702 -0.00235290857387 0)
(-0.349246231782 -0.000331017019806 0)
(-0.348551327208 0.00161706180937 0)
(-0.347505272107 0.00349374526446 0)
(-0.346093807325 0.00530842993685 0)
(-0.344330923085 0.00706771234435 0)
(-0.342224627274 0.00877780879287 0)
(-0.339782936046 0.0104447107175 0)
(-0.337013233121 0.0120742389572 0)
(-0.333922113536 0.0136721938532 0)
(-0.330515246263 0.0152444656879 0)
(-0.326797246887 0.0167970964946 0)
(-0.322771550039 0.018336288211 0)
(-0.318440285966 0.0198683539074 0)
(-0.313804173571 0.0213996085154 0)
(-0.308862447245 0.0229361964049 0)
(-0.303612838004 0.0244838566239 0)
(-0.298051630872 0.026047632003 0)
(-0.292173819546 0.0276315358213 0)
(-0.285973375611 0.0292381978718 0)
(-0.279443642648 0.0308685204375 0)
(-0.272577855604 0.0325213815272 0)
(-0.26536977314 0.0341934280133 0)
(-0.257814396122 0.0358790029976 0)
(-0.249908735517 0.0375702463198 0)
(-0.241652578811 0.0392574069271 0)
(-0.233049188233 0.0409294007694 0)
(-0.224105865654 0.0425746132733 0)
(-0.21483431104 0.0441819637232 0)
(-0.205250721988 0.045742183397 0)
(-0.195375571019 0.0472493118349 0)
(-0.185233009762 0.0487023444072 0)
(-0.174849922983 0.0501069653192 0)
(-0.164254782692 0.051477153348 0)
(-0.153475541633 0.0528375626533 0)
(-0.142537881352 0.0542240636893 0)
(-0.131463190494 0.0556855565468 0)
(-0.120265470138 0.0572853733847 0)
(-0.108948510321 0.0590994950118 0)
(-0.0975033788987 0.0612150269501 0)
(-0.0859037088928 0.0637256975014 0)
(-0.0740979720894 0.0667170687107 0)
(-0.0620093778711 0.0702297188791 0)
(-0.0495270885691 0.0741778099496 0)
(-0.0362257559141 0.0782412851981 0)
(-0.0225919415622 0.0808809388823 0)
(-0.0078941264557 0.0776800716947 0)
(-0.0220680912595 -0.0424384559253 0)
(-0.0419769624064 -0.0673699079587 0)
(-0.0662136482795 -0.0864180782853 0)
(-0.0879903929107 -0.100998505107 0)
(-0.108187545595 -0.110868633281 0)
(-0.126952473442 -0.116514262546 0)
(-0.144487984458 -0.118489514614 0)
(-0.160935084839 -0.117597131889 0)
(-0.176336380275 -0.114565428387 0)
(-0.190725436866 -0.110006092908 0)
(-0.20414238863 -0.104428022133 0)
(-0.216634004015 -0.098236275315 0)
(-0.22825245265 -0.0917422954898 0)
(-0.239050049114 -0.0851759248398 0)
(-0.249075697432 -0.0786991101969 0)
(-0.258372827418 -0.0724196299974 0)
(-0.266978910878 -0.0664037715027 0)
(-0.274925993818 -0.0606872606615 0)
(-0.282241704388 -0.0552841617068 0)
(-0.28895032998 -0.0501937875615 0)
(-0.295073734531 -0.0454058603218 0)
(-0.300632030952 -0.0409042441235 0)
(-0.305644019282 -0.0366695750592 0)
(-0.310127433621 -0.032681071656 0)
(-0.314099067882 -0.0289177530444 0)
(-0.317574830971 -0.0253592364606 0)
(-0.320569780337 -0.0219862378227 0)
(-0.323098153348 -0.0187808606815 0)
(-0.325173368718 -0.0157267421094 0)
(-0.326808056224 -0.012809117258 0)
(-0.328014103726 -0.0100148281922 0)
(-0.328803343325 -0.00733215773406 0)
(-0.329188310812 -0.00475028644728 0)
(-0.329179948338 -0.00225920718476 0)
(-0.32877998717 0.000147258408582 0)
(-0.328014575152 0.0024665484478 0)
(-0.32689070762 0.00470324878074 0)
(-0.325414148177 0.00686967135571 0)
(-0.323596008749 0.00897191917227 0)
(-0.321444922857 0.0110165489656 0)
(-0.318969149044 0.0130100497754 0)
(-0.316176403959 0.0149589236217 0)
(-0.313073760267 0.0168697984297 0)
(-0.309667498384 0.0187495328293 0)
(-0.305962937847 0.0206052817339 0)
(-0.301964255374 0.0224445065617 0)
(-0.297674299909 0.0242749185437 0)
(-0.29309441989 0.0261043454047 0)
(-0.288224323474 0.0279405143477 0)
(-0.283061997402 0.0297907489925 0)
(-0.277603713375 0.0316615857244 0)
(-0.271844151088 0.0335583250489 0)
(-0.265776663685 0.0354845451047 0)
(-0.259393703329 0.0374416169145 0)
(-0.252687412528 0.039428271133 0)
(-0.245650370965 0.0414402723238 0)
(-0.238276467153 0.0434702644248 0)
(-0.230561853422 0.0455078349048 0)
(-0.222505934113 0.0475398438363 0)
(-0.214112290445 0.0495510926323 0)
(-0.205389479873 0.0515252784482 0)
(-0.196351602861 0.0534463254549 0)
(-0.187018591481 0.0552999378742 0)
(-0.177416153569 0.0570754628847 0)
(-0.167575297708 0.05876788739 0)
(-0.157531270182 0.0603801712941 0)
(-0.147323129877 0.0619244057434 0)
(-0.136990617488 0.0634263191305 0)
(-0.12657292312 0.0649240916934 0)
(-0.116106701646 0.0664708830206 0)
(-0.105623024432 0.0681383961133 0)
(-0.0951435049673 0.0700129077421 0)
(-0.0846779951829 0.0721943628603 0)
(-0.0742222529389 0.0747956357651 0)
(-0.0637450441014 0.0779306836405 0)
(-0.0531832212655 0.0816834362581 0)
(-0.0424980962535 0.0860111224532 0)
(-0.0310563170613 0.0907153567427 0)
(-0.0198451515577 0.0943155268494 0)
(-0.0065087057919 0.0918186952841 0)
(-0.0197321925802 -0.0707514078371 0)
(-0.0407541955 -0.092994746628 0)
(-0.0658065488297 -0.10948699278 0)
(-0.0874584577545 -0.121977329119 0)
(-0.107225190376 -0.130063000991 0)
(-0.125195706701 -0.134163225706 0)
(-0.141646980821 -0.134823708421 0)
(-0.156790094177 -0.132763159968 0)
(-0.170771454388 -0.128661414193 0)
(-0.183714298964 -0.123114632246 0)
(-0.195724209096 -0.116623567393 1.12426714252e-28)
(-0.206891141274 -0.109587399166 -1.10958120197e-28)
(-0.217290335225 -0.102310364523 0)
(-0.226982296876 -0.0950136491062 0)
(-0.236014193541 -0.0878501330355 0)
(-0.24442207614 -0.080919277808 0)
(-0.252233554944 -0.0742805495801 0)
(-0.259470370453 -0.0679645837584 0)
(-0.266150516086 -0.0619819352312 0)
(-0.272289777063 -0.0563296420054 0)
(-0.277902711941 -0.0509959970324 0)
(-0.283003189645 -0.0459639450831 0)
(-0.287604622187 -0.0412134678911 0)
(-0.291720013677 -0.0367232430101 0)
(-0.295361925074 -0.0324717858059 0)
(-0.298542418049 -0.0284382210265 0)
(-0.301273020099 -0.0246027871612 0)
(-0.303564719597 -0.0209471473227 0)
(-0.305427952779 -0.0174545638094 0)
(-0.30687257728 -0.0141099725514 0)
(-0.307908029213 -0.0108999690134 0)
(-0.308544215977 -0.00781266137206 8.24182832486e-29)
(-0.308792189089 -0.00483740688149 -8.31270540475e-29)
(-0.308660024886 -0.00196505841161 0)
(-0.308143384565 0.000810179863407 0)
(-0.307282338462 0.00348834929582 0)
(-0.306064929235 0.00607537181681 0)
(-0.304504578389 0.00858201180528 0)
(-0.302610264378 0.0110155969267 0)
(-0.300390837686 0.0133831561512 0)
(-0.297854935439 0.0156915607577 0)
(-0.295010916283 0.0179477717886 0)
(-0.291866713052 0.0201590243051 0)
(-0.288429641244 0.022332967773 0)
(-0.284706175421 0.0244777535034 0)
(-0.280701701365 0.0266020566841 0)
(-0.276420254779 0.0287150180246 0)
(-0.271864263586 0.0308260896726 0)
(-0.267034318654 0.0329447722769 0)
(-0.261929005559 0.035080235592 0)
(-0.256544836109 0.0372408251395 0)
(-0.250876320052 0.0394334719343 0)
(-0.244916214999 0.0416630372937 0)
(-0.238655983021 0.0439316434216 0)
(-0.232086464968 0.0462380573887 0)
(-0.225198770019 0.0485771954856 0)
(-0.217985338319 0.0509398459414 0)
(-0.210441121071 0.0533126701237 0)
(-0.202564861269 0.0556784916117 0)
(-0.194360286033 0.0580171173733 0)
(-0.185837211315 0.0603063924923 0)
(-0.177012331611 0.0625238951159 0)
(-0.167909744315 0.0646487311239 0)
(-0.158561022023 0.0666639093235 0)
(-0.149005121612 0.0685584472731 0)
(-0.139286264463 0.0703313193274 0)
(-0.129456147945 0.0719899234695 0)
(-0.11956713075 0.0735603591806 0)
(-0.109673961138 0.0750817584785 0)
(-0.0998286724547 0.076608939176 0)
(-0.0900807733849 0.0782217479924 0)
(-0.0804710439728 0.0800170567025 0)
(-0.0710250180538 0.0821062210855 0)
(-0.0617595098282 0.0846205667222 0)
(-0.0526631567168 0.0877017662276 0)
(-0.0436695935145 0.0914809895768 0)
(-0.0348668562124 0.0959673517976 0)
(-0.0253046779069 0.10107308786 0)
(-0.0167365352586 0.105530988693 0)
(-0.00504109415569 0.103916417484 0)
(-0.0178995663076 -0.0986586705845 0)
(-0.0388657966783 -0.118425537245 0)
(-0.0635489076326 -0.13236316788 0)
(-0.084498849889 -0.142534203677 0)
(-0.103565617222 -0.148574603918 0)
(-0.120677113639 -0.150907958671 0)
(-0.136144561121 -0.150067679688 0)
(-0.150205365102 -0.146719329755 0)
(-0.163060426389 -0.141501050407 0)
(-0.174881239305 -0.134979910012 0)
(-0.185808949871 -0.127630887153 0)
(-0.195955744145 -0.119829868116 0)
(-0.205407416685 -0.11185991232 0)
(-0.214226948636 -0.103923971935 0)
(-0.222459214488 -0.0961603379315 0)
(-0.230135797264 -0.0886577218749 0)
(-0.237279301162 -0.0814683318965 0)
(-0.243906743836 -0.0746183398465 0)
(-0.250031938397 -0.0681158216457 0)
(-0.255666981763 -0.0619565791688 0)
(-0.260823065381 -0.056128332551 0)
(-0.26551083657 -0.0506137214608 0)
(-0.269740503213 -0.0453924565528 0)
(-0.273521818691 -0.0404428666947 0)
(-0.276864036975 -0.0357430102067 0)
(-0.279775886849 -0.0312714625788 0)
(-0.282265587768 -0.027007858781 0)
(-0.284340898537 -0.0229332525862 0)
(-0.286009159349 -0.019030346505 0)
(-0.287277311504 -0.0152836063446 0)
(-0.288152145264 -0.0116792323018 0)
(-0.288641238162 -0.00820502224217 0)
(-0.288753357106 -0.00485048851763 0)
(-0.288493498024 -0.00160762287091 0)
(-0.287853513012 0.0015286845685 0)
(-0.286879675013 0.0045600640734 0)
(-0.285552465862 0.00749274982826 0)
(-0.283886914364 0.0103359138889 0)
(-0.281891175166 0.0130970326597 0)
(-0.279574307634 0.0157831270892 0)
(-0.276945574421 0.0184011497199 0)
(-0.274014305364 0.0209582914631 0)
(-0.270789685788 0.0234622129398 0)
(-0.267280511944 0.0259212219483 0)
(-0.26349490711 0.0283443929691 9.73222335324e-29)
(-0.259439999521 0.0307416138507 -9.78727631233e-29)
(-0.255121570031 0.0331235384088 0)
(-0.250543687583 0.0355014211931 0)
(-0.245708361533 0.0378868121788 0)
(-0.24061525263 0.040291095149 0)
(-0.235261495486 0.0427248656753 0)
(-0.229641688584 0.0451971673116 0)
(-0.223748107142 0.0477146229715 0)
(-0.217571185709 0.0502805217667 0)
(-0.211100282218 0.0528939660743 0)
(-0.204324739989 0.0555491363966 0)
(-0.197235194655 0.0582348308916 0)
(-0.189824984606 0.0609344159897 0)
(-0.182091852165 0.0636259134431 0)
(-0.174039403685 0.0662831609115 0)
(-0.165678649838 0.0688767670804 0)
(-0.15702898011 0.0713764636494 0)
(-0.148119093441 0.0737529139921 0)
(-0.138986765659 0.0759811628479 0)
(-0.129680578287 0.0780415528082 0)
(-0.120252989419 0.079928701281 0)
(-0.11077230401 0.0816408132366 0)
(-0.101301733256 0.0832040234314 0)
(-0.0919175883569 0.0846581024552 0)
(-0.0826855915112 0.0860561570527 0)
(-0.0736749847897 0.0874853514137 0)
(-0.0649527237607 0.0890559213561 0)
(-0.0565566723521 0.0908902001338 0)
(-0.0485247873809 0.0931372861673 0)
(-0.040869664644 0.0959665196454 0)
(-0.033497328403 0.0995531452775 0)
(-0.0266798239382 0.10397763746 0)
(-0.0190425190258 0.109210102018 0)
(-0.0132898891365 0.114331987042 0)
(-0.00349535360915 0.113732705715 0)
(-0.0162699959416 -0.12481127265 0)
(-0.0365612497351 -0.142751857831 0)
(-0.0602594242798 -0.154391417744 0)
(-0.0801748870269 -0.162284140688 0)
(-0.0983504053135 -0.166243052863 0)
(-0.114546115789 -0.166750872949 0)
(-0.129090722502 -0.164350194019 0)
(-0.142217140312 -0.15967954378 0)
(-0.154146237486 -0.153343080601 0)
(-0.165067465167 -0.145873615914 0)
(-0.175135210324 -0.13771161441 0)
(-0.184469095564 -0.12920094449 0)
(-0.193157605625 -0.120596916967 0)
(-0.201263655403 -0.112080261033 0)
(-0.208830914716 -0.103772819005 0)
(-0.215889627086 -0.0957520443347 0)
(-0.22246130189 -0.0880630029289 0)
(-0.22856207359 -0.0807276395314 0)
(-0.234204861579 -0.0737516493391 0)
(-0.23940061367 -0.0671294868892 0)
(-0.244158939905 -0.0608480191025 0)
(-0.24848839526 -0.0548892186033 0)
(-0.252396595338 -0.0492321742384 0)
(-0.25589027912 -0.0438546018161 0)
(-0.258975380676 -0.0387339736508 0)
(-0.261657135938 -0.0338483451896 0)
(-0.263940224665 -0.0291769336611 0)
(-0.265828919119 -0.0247005027679 0)
(-0.267327213919 -0.0204016129063 0)
(-0.268438950387 -0.0162647427889 0)
(-0.269168204322 -0.0122761862582 0)
(-0.269520084669 -0.0084237200385 0)
(-0.269500497051 -0.00469684998121 9.34483342172e-29)
(-0.269111007097 -0.00108865686238 -9.48155233322e-29)
(-0.268341256184 0.00240378294374 0)
(-0.267242804291 0.00578257730944 0)
(-0.265789035325 0.00905608671907 0)
(-0.263996238287 0.0122321333575 0)
(-0.261872211015 0.015317393216 0)
(-0.259426439166 0.0183182901202 0)
(-0.256669041034 0.0212414066785 0)
(-0.253610575247 0.0240937953066 0)
(-0.250261785206 0.0268832342811 0)
(-0.246633316332 0.0296184421843 0)
(-0.24273538187 0.0323092412636 0)
(-0.238577368125 0.0349666469205 0)
(-0.234167382112 0.0376028515905 0)
(-0.229511758468 0.0402310657243 0)
(-0.224614559619 0.0428651803445 0)
(-0.219477121257 0.0455192215392 0)
(-0.214097717671 0.0482065784088 0)
(-0.208471425487 0.0509390263677 0)
(-0.202590260309 0.0537255920882 0)
(-0.196443679438 0.0565713066903 0)
(-0.190019432343 0.0594760583171 0)
(-0.183304814581 0.0624335276277 0)
(-0.17628833936 0.065430405107 0)
(-0.168961240223 0.0684464959117 0)
(-0.16131991191 0.0714540660115 0)
(-0.153367439649 0.0744200093649 0)
(-0.1451159962 0.0773059978538 0)
(-0.136587533575 0.0800723647573 0)
(-0.127816117786 0.0826789625372 0)
(-0.118844957527 0.0850916648489 0)
(-0.10973601059 0.0872776572028 0)
(-0.100544710827 0.0892286913012 0)
(-0.0913668356786 0.0909270458888 0)
(-0.0822645981538 0.0923978840778 0)
(-0.073351760826 0.0936827680271 0)
(-0.0647037134857 0.0948311992345 0)
(-0.056405710097 0.0959329298371 0)
(-0.0485667186079 0.0971159387231 0)
(-0.0412331148224 0.0985152491393 0)
(-0.034464676382 0.10029589109 0)
(-0.0283069741659 0.102658542519 0)
(-0.0226206316055 0.105813443183 0)
(-0.0178883737118 0.109943223235 0)
(-0.0122836871972 0.115014591973 0)
(-0.009480070576 0.120535787307 0)
(-0.00185639696696 0.1210360884 0)
(-0.014740874184 -0.149094981586 0)
(-0.0340147066761 -0.16565381919 0)
(-0.0564262577044 -0.175238030135 0)
(-0.0751429430137 -0.180996988318 0)
(-0.0923177170334 -0.182958397205 0)
(-0.107565812387 -0.181686629693 0)
(-0.121229119842 -0.177751499488 0)
(-0.13351807757 -0.171782721155 0)
(-0.144652770034 -0.164357955664 0)
(-0.154821291164 -0.155975960006 0)
(-0.164176953577 -0.147040456052 0)
(-0.172837708639 -0.137860924653 0)
(-0.180890354396 -0.128663556118 0)
(-0.188396792201 -0.119606520732 0)
(-0.195400619592 -0.110795488507 0)
(-0.201932802044 -0.10229706185 0)
(-0.208015945048 -0.094149376603 0)
(-0.213667166845 -0.0863700414979 0)
(-0.218899852262 -0.0789619657504 0)
(-0.223724640681 -0.071917656997 0)
(-0.22814996236 -0.0652224536038 0)
(-0.2321823538 -0.05885700879 0)
(-0.235826693834 -0.0527992248089 0)
(-0.239086435138 -0.0470257578679 0)
(-0.241963861287 -0.041513170655 0)
(-0.244460374835 -0.0362387865601 0)
(-0.246576797049 -0.0311812858878 0)
(-0.248313627503 -0.0263210947184 0)
(-0.249671261125 -0.0216406361013 0)
(-0.250650263 -0.01712445354 0)
(-0.251252060686 -0.0127590384481 0)
(-0.25147956188 -0.00853218508883 0)
(-0.251335241435 -0.00443311357016 0)
(-0.250815192855 -0.000456334965976 0)
(-0.249908047588 0.00339464214503 0)
(-0.248672692838 0.00712239045012 0)
(-0.247076570828 0.010741104006 0)
(-0.245136028491 0.0142548513825 0)
(-0.242858757463 0.0176686791594 0)
(-0.240254753999 0.0209879208991 0)
(-0.237335031917 0.0242184150763 0)
(-0.234111401258 0.0273667394661 0)
(-0.230596216685 0.0304404735018 0)
(-0.226802095908 0.0334484579618 0)
(-0.222741565321 0.0364010249663 0)
(-0.21842661188 0.0393101622733 0)
(-0.213868133469 0.0421895637484 0)
(-0.209075302643 0.045054510622 0)
(-0.204054880938 0.0479215258676 0)
(-0.198810543247 0.0508077569086 0)
(-0.193342320651 0.0537300353714 0)
(-0.187646279274 0.0567036325047 0)
(-0.181714506483 0.0597408148492 0)
(-0.175535632918 0.0628491040845 0)
(-0.169095764114 0.0660297893948 0)
(-0.162379859919 0.0692764827551 0)
(-0.155374188032 0.0725735545008 0)
(-0.148067254369 0.0758973358855 0)
(-0.140453972995 0.0792129879544 0)
(-0.132536221908 0.0824797406809 0)
(-0.124327739417 0.085648083168 0)
(-0.115852070461 0.0886676302297 0)
(-0.107150863883 0.0914839121143 0)
(-0.098268413805 0.0940536720613 0)
(-0.0892905318597 0.0963236118294 0)
(-0.0802569630179 0.0982864538165 0)
(-0.0713224238291 0.0999016188682 0)
(-0.0625122215626 0.101190821244 0)