/*--------------------------------*- C++ -*----------------------------------*\
| =========                 |                                                 |
| \\      /  F ield         | OpenFOAM: The Open Source CFD Toolbox           |
|  \\    /   O peration     | Version:  v1806                                 |
|   \\  /    A nd           | Web:      www.OpenFOAM.com                      |
|    \\/     M anipulation  |                                                 |
\*---------------------------------------------------------------------------*/
FoamFile
{
    version     2.0;
    format      ascii;
    class       volVectorField;
    location    "400";
    object      U;
}
// * * * * * * * * * * * * * * * * * * * * * * * * * * * * * * * * * * * * * //

dimensions      [0 1 -1 0 0 0 0];


internalField   nonuniform List<vector> 
6400
(
(0.00634191520191 0.00768761669239 0)
(0.0136414656772 0.00447272451321 0)
(0.0187792099398 0.00375908414674 0)
(0.0195759391403 0.00461145346625 0)
(0.0161207150942 0.00137961494675 0)
(-0.00292610492463 -0.0111643737516 0)
(-0.0305491397566 -0.0145500374083 0)
(-0.0534210559895 -0.014337365166 0)
(-0.0774637781885 -0.0139847039402 0)
(-0.101253719504 -0.0134987040212 0)
(-0.124422473135 -0.0128875663709 0)
(-0.146682548706 -0.0121904519209 0)
(-0.167838615259 -0.0114431053874 0)
(-0.187766705148 -0.0106747138231 0)
(-0.206399944156 -0.0099077880644 0)
(-0.223715943638 -0.00915891683937 0)
(-0.239725888687 -0.0084396992367 0)
(-0.254465278297 -0.00775767460186 0)
(-0.267986281328 -0.00711718364361 0)
(-0.280351609613 -0.00652012545057 0)
(-0.291629751414 -0.00596659826456 0)
(-0.301891373962 -0.00545542201499 0)
(-0.311206696213 -0.0049845501094 0)
(-0.319643636446 -0.00455138445395 0)
(-0.327266563096 -0.00415300787568 0)
(-0.334135503481 -0.00378635121228 0)
(-0.340305680554 -0.00344830773324 0)
(-0.345827299775 -0.00313580894218 0)
(-0.350745496845 -0.00284587042515 0)
(-0.355100403523 -0.0025756193588 0)
(-0.35892730156 -0.00232229934935 0)
(-0.362256782045 -0.00208326892792 0)
(-0.365114998591 -0.00185597967343 0)
(-0.367523867895 -0.00163794677682 0)
(-0.369501195517 -0.00142664161027 0)
(-0.371060697015 -0.00121923307395 0)
(-0.372211567331 -0.00101232065344 0)
(-0.372958494608 -0.000802132258415 0)
(-0.373302917124 -0.00058605633504 0)
(-0.373247500724 -0.000363112481657 0)
(-0.372784214352 -0.000135041240647 0)
(-0.371909645411 9.49215311456e-05 0)
(-0.370624951568 0.000325243463233 0)
(-0.36893005201 0.000555985118001 0)
(-0.366824264775 0.000787617868475 0)
(-0.364305968535 0.00102071283843 0)
(-0.361372599494 0.00125584051546 0)
(-0.358020710196 0.00149353186663 0)
(-0.354246058635 0.00173426594206 0)
(-0.350043723775 0.00197844842505 0)
(-0.345408258992 0.00222639440135 0)
(-0.340333894821 0.00247829622168 0)
(-0.334814801048 0.00273419884969 0)
(-0.328845408973 0.00299396699332 0)
(-0.322420787874 0.00325726969216 0)
(-0.31553705698 0.00352356770644 0)
(-0.308191805695 0.00379213007822 0)
(-0.300384486379 0.00406206604817 0)
(-0.292116736678 0.00433239903021 0)
(-0.283392585482 0.00460216399399 0)
(-0.274218482487 0.00487055106256 0)
(-0.264603077396 0.00513706538273 0)
(-0.254556671296 0.00540173274815 0)
(-0.244090266514 0.00566533157359 0)
(-0.233214205379 0.00592968283316 0)
(-0.221936402171 0.0061979730469 0)
(-0.210260161795 0.00647507583797 0)
(-0.198181522205 0.0067678400797 0)
(-0.185685932094 0.00708534961657 0)
(-0.172744316463 0.00743915924515 0)
(-0.159308819552 0.0078435076514 0)
(-0.145309242905 0.00831515405576 0)
(-0.130652155292 0.00887227955457 0)
(-0.115223380252 0.00953055722991 0)
(-0.0988881267444 0.0102945337207 0)
(-0.0814798629156 0.0111469184947 0)
(-0.0628401446802 0.0120404039805 0)
(-0.0431835588206 0.0128365815759 0)
(-0.0240723814337 0.0128632915553 0)
(-0.0089733183929 0.00916164982862 0)
(0.0042298849474 0.0174288358244 0)
(0.00895323409349 0.0108689910704 0)
(0.00929365565656 0.00441681729294 0)
(-0.017677051317 -0.0154577700533 0)
(-0.0378669259936 -0.0247777465064 0)
(-0.0588386522068 -0.0314060621254 0)
(-0.0821549850914 -0.034672230475 0)
(-0.105600423473 -0.0356316048003 0)
(-0.129685473103 -0.0356420244961 0)
(-0.153430253343 -0.0349777898607 0)
(-0.176424096715 -0.0338147143391 0)
(-0.198366874072 -0.0322950438638 0)
(-0.219068127585 -0.0305357220885 0)
(-0.238415019658 -0.0286322451273 0)
(-0.256354438898 -0.0266607055947 0)
(-0.272878345347 -0.0246798749303 0)
(-0.288011718353 -0.0227334629957 0)
(-0.301802667247 -0.0208524790518 0)
(-0.314314487235 -0.0190575523781 0)
(-0.325619450715 -0.0173610876464 0)
(-0.335794093762 -0.0157691710354 0)
(-0.344915754055 -0.0142831850511 0)
(-0.35306011282 -0.0129011278434 0)
(-0.360299521609 -0.0116186556325 0)
(-0.366701929883 -0.0104298830524 0)
(-0.37233024028 -0.00932797946381 0)
(-0.377241988829 -0.00830560381192 0)
(-0.381489233063 -0.00735521379292 0)
(-0.385118583033 -0.00646928440979 0)
(-0.388171378919 -0.00564045060539 0)
(-0.390683855791 -0.00486159218782 0)
(-0.392687425929 -0.00412588146333 0)
(-0.394208917452 -0.00342682299304 0)
(-0.395270838002 -0.00275825661327 0)
(-0.395891954368 -0.00211409902276 0)
(-0.396087158974 -0.0014877710364 0)
(-0.395867064498 -0.000872294161682 0)
(-0.395235923934 -0.000262845862256 0)
(-0.394203332781 0.000340056712753 0)
(-0.392789555926 0.000936140220309 0)
(-0.391009464112 0.00152922029859 0)
(-0.388872074388 0.00212062624252 0)
(-0.386377542316 0.00271124771874 0)
(-0.383524329274 0.00330250475977 0)
(-0.380309308731 0.00389586542293 0)
(-0.376728431864 0.00449272453716 0)
(-0.372776939733 0.00509436460201 0)
(-0.368449466092 0.0057019415051 0)
(-0.363740109091 0.00631646234084 0)
(-0.358642511768 0.00693874478392 0)
(-0.353149977762 0.00756935405246 0)
(-0.347255638624 0.00820852252714 0)
(-0.340952685819 0.008856058821 0)
(-0.334234669246 0.00951125908132 0)
(-0.327095858822 0.0101728337535 0)
(-0.319531651214 0.0108388670887 0)
(-0.311538998566 0.0115068251286 0)
(-0.303116822182 0.0121736289129 0)
(-0.294266371942 0.0128358045393 0)
(-0.284991479108 0.0134897182549 0)
(-0.27529864814 0.0141318968825 0)
(-0.265196918761 0.0147594298645 0)
(-0.254697435867 0.015370449914 0)
(-0.243812669834 0.0159646947865 0)
(-0.232555265416 0.0165441553465 0)
(-0.220936510387 0.0171137967989 0)
(-0.208964423903 0.017682302271 0)
(-0.196641440029 0.0182627495661 0)
(-0.183961633928 0.0188731894747 0)
(-0.1709074702 0.0195371304481 0)
(-0.157446353876 0.0202837356006 0)
(-0.143527632162 0.0211474189345 0)
(-0.129080985864 0.0221655962032 0)
(-0.114016852339 0.0233709367898 0)
(-0.0982274308539 0.024773771194 0)
(-0.0815869606819 0.0263364856628 0)
(-0.0639736500129 0.0279438963961 0)
(-0.0454171815496 0.0292838241138 0)
(-0.0266818085465 0.0292307694773 0)
(-0.0108460227769 0.0241291302617 0)
(-0.000173573399994 0.0197039648519 0)
(-0.00959501306803 0.000315374827528 0)
(-0.030299234152 -0.0224335481978 -9.72018153509e-29)
(-0.0496280664981 -0.0355451668474 5.76359259422e-29)
(-0.07093033964 -0.0457930771433 4.27060271694e-29)
(-0.0923632726032 -0.0535050303848 -3.42738938283e-29)
(-0.114222932923 -0.0578381777369 2.88736140881e-29)
(-0.136171980126 -0.0593934733563 -2.54901830699e-29)
(-0.158073879516 -0.0592685452582 0)
(-0.179373965428 -0.0579509370441 0)
(-0.199755424402 -0.0557876622929 0)
(-0.218990515465 -0.053041891178 0)
(-0.236947452827 -0.0499215399667 0)
(-0.25356397542 -0.0465910069735 0)
(-0.268829470355 -0.0431779028831 0)
(-0.282769994592 -0.0397783956301 0)
(-0.295436364022 -0.0364621544455 0)
(-0.306894862415 -0.0332770630158 0)
(-0.317220221976 -0.0302536002931 0)
(-0.326490505443 -0.027408754538 0)
(-0.334783525469 -0.0247493798314 0)
(-0.342174453799 -0.0222749659496 0)
(-0.34873431518 -0.0199798468517 0)
(-0.354529127967 -0.0178549059849 0)
(-0.359619468946 -0.0158888549432 0)
(-0.364060345395 -0.0140691652057 0)
(-0.367901245076 -0.012382731182 0)
(-0.371186278223 -0.0108163288795 0)
(-0.373954461445 -0.00935693296587 0)
(-0.376239908467 -0.00799191452926 -7.36193422528e-29)
(-0.378072151409 -0.00670917119984 7.35087452965e-29)
(-0.379476384336 -0.00549720890113 0)
(-0.380473621141 -0.0043452154734 0)
(-0.381081600342 -0.00324306753477 0)
(-0.381314929576 -0.00218092579846 0)
(-0.381184975676 -0.00114872469584 0)
(-0.380696316933 -0.000137945997375 0)
(-0.379850408861 0.000852194895945 0)
(-0.378683825898 0.00182014730216 0)
(-0.377178893884 0.00277303064565 0)
(-0.375337381618 0.00371779415042 0)
(-0.373156766764 0.00466018327268 0)
(-0.370634610491 0.00560440265738 0)
(-0.367767861149 0.00655337664681 0)
(-0.364552756911 0.00750946828237 0)
(-0.360984912028 0.00847471624014 0)
(-0.357059376704 0.00945093665334 0)
(-0.352770672207 0.0104397621258 0)
(-0.348112818852 0.0114426210482 0)
(-0.343079381926 0.0124606755807 0)
(-0.337663559071 0.0134947092286 0)
(-0.331858330122 0.0145449878102 0)
(-0.325656683789 0.015611094091 0)
(-0.319051928723 0.0166917707844 0)
(-0.312038085566 0.0177847816106 0)
(-0.304610346558 0.0188868327893 0)
(-0.296765576248 0.0199935678947 0)
(-0.288502817107 0.021099676837 0)
(-0.279823752543 0.0221991238896 0)
(-0.270733073409 0.0232855221715 0)
(-0.261238686778 0.0243526423886 0)
(-0.251351703488 0.0253950658783 0)
(-0.241086142936 0.0264089580362 0)
(-0.23045830829 0.0273929615203 0)
(-0.219485801374 0.0283491860942 0)
(-0.20818617241 0.0292842608273 0)
(-0.196575177942 0.0302104165323 0)
(-0.184664674401 0.0311464518789 0)
(-0.172460169429 0.0321185189551 0)
(-0.159957919656 0.0331607953424 0)
(-0.14714189521 0.0343153563027 0)
(-0.13398110126 0.0356309439343 0)
(-0.120426995653 0.0371596601743 0)
(-0.106410880352 0.0389474601533 0)
(-0.0918429551362 0.0410128619162 0)
(-0.0766161539229 0.0433090350896 0)
(-0.0606087879546 0.0456565450334 0)
(-0.0436961128718 0.0475618627037 0)
(-0.0261459562383 0.047586732325 0)
(-0.010298807386 0.0417003740663 0)
(-0.00917517398416 0.00900440473212 0)
(-0.0304761421347 -0.0220589344062 0)
(-0.0495332762112 -0.0411113199754 0)
(-0.0701344029179 -0.0559540652699 0)
(-0.0911434967261 -0.067001300352 0)
(-0.111904475224 -0.0747291938968 0)
(-0.132376124575 -0.0789986368934 0)
(-0.152413085925 -0.0803589327376 0)
(-0.171859806924 -0.0796471211478 0)
(-0.190449845058 -0.077424357808 0)
(-0.208015015589 -0.0741400513967 0)
(-0.224440346977 -0.0701466825458 0)
(-0.239672867767 -0.0657223415785 0)
(-0.253705876433 -0.06108334282 0)
(-0.266565931246 -0.0563937471133 0)
(-0.278301172686 -0.0517736734743 0)
(-0.288972227962 -0.047307047779 0)
(-0.298645574775 -0.0430488047801 0)
(-0.307389012579 -0.039031364223 0)
(-0.315268778384 -0.035270218635 0)
(-0.322347857773 -0.0317685605569 0)
(-0.328685106464 -0.0285209705744 0)
(-0.334334883193 -0.025516256088 0)
(-0.339346988122 -0.0227395667131 0)
(-0.343766755057 -0.0201739236519 0)
(-0.347635219855 -0.0178012929717 0)
(-0.350989307681 -0.0156033184869 0)
(-0.353862006555 -0.013561809253 0)
(-0.356282558383 -0.0116590496258 0)
(-0.358276607471 -0.00987799151357 0)
(-0.359866355249 -0.00820236990308 0)
(-0.361070672086 -0.00661679068535 0)
(-0.36190524923 -0.0051067853973 0)
(-0.362383340465 -0.00365869228911 0)
(-0.362516398053 -0.00225933094587 0)
(-0.362311861723 -0.000896101521466 0)
(-0.361765503223 0.000440435073719 0)
(-0.360908664019 0.00175095189592 0)
(-0.359725483062 0.00304128665369 0)
(-0.358218657345 0.00432143661743 0)
(-0.356387156741 0.00559656774325 0)
(-0.35422879689 0.00687173495767 0)
(-0.351740726956 0.00815121314298 0)
(-0.348919503975 0.00943852347604 0)
(-0.345761166322 0.0107366462256 0)
(-0.342261292737 0.012048196126 8.47870227236e-29)
(-0.338415013309 0.0133755412045 -8.53882680065e-29)
(-0.334216987879 0.0147208523558 0)
(-0.329661376752 0.0160860803743 0)
(-0.324741832434 0.0174728583592 0)
(-0.319451541812 0.0188823370344 0)
(-0.313783344767 0.0203149647829 0)
(-0.307729950237 0.0217702358281 0)
(-0.301284261505 0.0232464343197 0)
(-0.294439812119 0.024740412142 0)
(-0.287191299411 0.0262474385371 0)
(-0.279535189113 0.0277611639081 0)
(-0.271470349521 0.0292737333288 1.20305587073e-28)
(-0.26299866269 0.0307760817534 -1.23128085046e-28)
(-0.254125550203 0.0322584295118 0)
(-0.244860346343 0.0337109859736 0)
(-0.235216451061 0.0351248514815 0)
(-0.225211197355 0.036493109103 0)
(-0.214865394348 0.037812052275 0)
(-0.204202502076 0.0390825737714 0)
(-0.193247464017 0.0403115515604 0)
(-0.182025120374 0.0415133741016 0)
(-0.170558238361 0.0427112803735 0)
(-0.158865422144 0.0439383463985 0)
(-0.146958359306 0.0452387921918 0)
(-0.134838785115 0.04666786276 0)
(-0.122496101927 0.0482900366078 0)
(-0.109904331685 0.0501760565239 0)
(-0.0970171284447 0.052393955629 0)
(-0.0837634604195 0.0549878173258 0)
(-0.0700490760037 0.057935301115 0)
(-0.0557416055144 0.0610604862577 0)
(-0.0405929471115 0.0638280478879 0)
(-0.0246259878962 0.0646222301391 0)
(-0.00936270780599 0.0587563904166 0)
(-0.0214286887073 -0.017600252394 0)
(-0.0381377663213 -0.0422971569518 0)
(-0.0596744176739 -0.061680165784 0)
(-0.0810794790447 -0.0767732462397 0)
(-0.101855066928 -0.0876708926173 0)
(-0.121776167163 -0.0947660941194 0)
(-0.140830505524 -0.0983457089787 0)
(-0.159003018504 -0.0990010655907 0)
(-0.176244457927 -0.0974368831076 0)
(-0.192470019305 -0.0942295731836 0)
(-0.207636998329 -0.0898715956684 0)
(-0.221728651859 -0.0847634392254 0)
(-0.234758275265 -0.0792233903673 0)
(-0.246760058329 -0.0734967210424 0)
(-0.257781387337 -0.0677658598759 0)
(-0.267876100332 -0.0621608108417 0)
(-0.277099746965 -0.0567692967315 0)
(-0.285506677988 -0.0516460944107 0)
(-0.293148547703 -0.0468211712888 0)
(-0.300073744719 -0.0423064352153 0)
(-0.306327343165 -0.0381010943415 0)
(-0.311951282941 -0.0341957538287 0)
(-0.316984601858 -0.0305754444488 0)
(-0.321463634873 -0.0272217935147 0)
(-0.325422141549 -0.0241145397589 0)
(-0.328891366845 -0.0212325624888 0)
(-0.331900041572 -0.0185545679776 0)
(-0.334474344506 -0.0160595439905 0)
(-0.336637876385 -0.0137270387197 0)
(-0.338411607871 -0.0115373371702 0)
(-0.339813836611 -0.00947158412717 -7.98187253575e-29)
(-0.340860127398 -0.00751191244589 8.00227113499e-29)
(-0.341563463934 -0.00564153185292 0)
(-0.34193503096 -0.00384446647847 0)
(-0.341984415642 -0.00210544518636 0)
(-0.341715900123 -0.000411411914916 0)
(-0.341120215071 0.00124549312863 0)
(-0.340235841685 0.0028718692245 0)
(-0.339040396192 0.00447862213907 0)
(-0.337536869894 0.00607529238059 0)
(-0.335722168396 0.00766921461628 0)
(-0.333593015595 0.00926636544542 0)
(-0.331145782336 0.0108715506666 0)
(-0.328376595455 0.0124886803829 0)
(-0.3252813726 0.0141210576192 0)
(-0.321855808792 0.0157716170714 0)
(-0.318095308793 0.017443088516 0)
(-0.313994882245 0.0191380694614 0)
(-0.309549029599 0.0208589942045 0)
(-0.304751653466 0.0226079983668 0)
(-0.299596031779 0.0243866833278 0)
(-0.294074887432 0.0261958003631 0)
(-0.288180583096 0.0280348814742 0)
(-0.281905460519 0.0299018592902 0)
(-0.275242329592 0.0317927227407 0)
(-0.268185096225 0.0337012654719 0)
(-0.260729499571 0.0356189805669 0)
(-0.252873911756 0.0375351561019 0)
(-0.244620138943 0.0394372118396 0)
(-0.23597414938 0.04131130645 0)
(-0.226946646531 0.043143227392 0)
(-0.217553418758 0.0449195295021 0)
(-0.207815365825 0.0466289599598 0)
(-0.197758223462 0.0482639645843 0)
(-0.187411832519 0.0498225434781 0)
(-0.176809157838 0.0513098413526 0)
(-0.165984824137 0.0527401545011 0)
(-0.154973031272 0.0541387514853 0)
(-0.143806042687 0.0555425130712 0)
(-0.132511395087 0.0570024926115 0)
(-0.12110833137 0.0585839485212 0)
(-0.109605682184 0.0603633545683 0)
(-0.0979993091376 0.0624272819257 0)
(-0.0862660809319 0.0648659625158 0)
(-0.0743548575506 0.0677531900545 0)
(-0.0621875008808 0.0711055822841 0)
(-0.0496411745707 0.0747924636958 0)
(-0.0363752408976 0.0783471948316 0)
(-0.0223793463201 0.080106822187 0)
(-0.00822090061247 0.0745823006532 0)
(-0.0202986847218 -0.0413386427861 0)
(-0.0399517604499 -0.0655896478589 0)
(-0.0636384972122 -0.0837898180088 0)
(-0.0854290227491 -0.0978784297945 0)
(-0.105858295885 -0.107723478941 0)
(-0.124906192986 -0.113682358159 0)
(-0.142660825154 -0.116164819324 0)
(-0.15921607315 -0.115770448402 0)
(-0.174633437341 -0.113152554833 0)
(-0.188952240223 -0.108890294266 0)
(-0.202221711381 -0.103489035042 0)
(-0.214494321526 -0.0973659807383 0)
(-0.225827367665 -0.0908527831986 0)
(-0.236278464537 -0.0842026024495 0)
(-0.245902670741 -0.0776007323667 0)
(-0.254750632607 -0.071176521341 0)
(-0.262868067248 -0.0650151096689 0)
(-0.270296153209 -0.0591679929972 0)
(-0.277072369543 -0.0536619070999 0)
(-0.283231410183 -0.0485059129522 0)
(-0.288805944676 -0.043696811811 0)
(-0.293827129345 -0.0392231464194 0)
(-0.298324881617 -0.0350680800194 0)
(-0.302327931606 -0.0312114224087 0)
(-0.305863752346 -0.0276310322583 0)
(-0.308958390419 -0.0243037749311 0)
(-0.311636223758 -0.0212061712768 0)
(-0.313919835335 -0.0183148417521 0)
(-0.315829691963 -0.0156067993466 0)
(-0.317384060064 -0.0130596612813 0)
(-0.318598789804 -0.0106518359131 0)
(-0.31948699122 -0.00836270905107 0)
(-0.320060119898 -0.00617273386065 0)
(-0.320327610595 -0.00406312639114 0)
(-0.320296453829 -0.00201601483304 0)
(-0.319965044883 -1.74046180971e-05 0)
(-0.319337074941 0.00193852407094 0)
(-0.318428912319 0.00386244332639 0)
(-0.317225142586 0.00577046255704 0)
(-0.315726301998 0.00767149483475 0)
(-0.313928143382 0.00957325841788 0)
(-0.311826474375 0.0114819749495 0)
(-0.309417050439 0.0134026025524 0)
(-0.30669573781 0.0153391490764 0)
(-0.303658542374 0.01729501694 0)
(-0.300301540059 0.0192733081806 0)
(-0.296620721923 0.0212770442932 0)
(-0.292611782865 0.0233092674129 0)
(-0.288269892797 0.0253730035393 0)
(-0.283589495604 0.0274710794315 0)
(-0.278564183985 0.0296058005264 0)
(-0.273186696632 0.0317785106231 0)
(-0.26744907784 0.0339890718107 0)
(-0.26134302781 0.0362353161176 0)
(-0.254860455385 0.0385125350992 0)
(-0.247994223849 0.0408130802724 0)
(-0.240739057544 0.0431261513561 0)
(-0.233092554365 0.0454378431668 0)
(-0.225056227023 0.0477315126117 0)
(-0.216636489152 0.0499884850087 0)
(-0.207845457415 0.0521891735714 0)
(-0.198701555742 0.0543144113041 0)
(-0.189229655213 0.0563473784945 0)
(-0.17946106328 0.0582751956051 0)
(-0.169432729036 0.0600916141486 0)
(-0.159186470439 0.0617985016058 0)
(-0.148767730424 0.0634084162462 0)
(-0.138222634383 0.0649475817649 0)
(-0.127597721245 0.0664546125823 0)
(-0.116936697129 0.0679857659151 0)
(-0.106276161373 0.069615832932 0)
(-0.0956426747403 0.0714314187248 0)
(-0.0850510641247 0.0735326118611 0)
(-0.0745011030167 0.0760319048753 0)
(-0.0639589974445 0.0790335707902 0)
(-0.0533628073536 0.0825988046745 0)
(-0.0426260144683 0.0866597896605 0)
(-0.0313186829348 0.0908731688983 0)
(-0.0195907849336 0.0936603133372 0)
(-0.00694617460436 0.0887154886871 0)
(-0.01871620733 -0.0684466450333 0)
(-0.0394653294548 -0.0904408637045 0)
(-0.0639456133827 -0.106571024509 0)
(-0.0855231465212 -0.118899038219 0)
(-0.105387774366 -0.127110761568 0)
(-0.123523847878 -0.13154511237 0)
(-0.140105948052 -0.132640050509 0)
(-0.155297748365 -0.130985114555 0)
(-0.169239335956 -0.127203180193 0)
(-0.182049859266 -0.121864178692 0)
(-0.193838346275 -0.115466736421 1.16248100482e-28)
(-0.204699731913 -0.108422479899 -1.14829603036e-28)
(-0.214716056097 -0.101056281662 0)
(-0.223955821204 -0.0936133431725 0)
(-0.232475163431 -0.0862707088795 0)
(-0.240319841168 -0.0791501937498 0)
(-0.247527744303 -0.0723307938705 0)
(-0.254131357605 -0.0658594718867 0)
(-0.260159816314 -0.0597599017354 0)
(-0.265640392019 -0.0540392130557 0)
(-0.270599410055 -0.0486930111902 0)
(-0.275062692381 -0.0437090238272 0)
(-0.279055665005 -0.039069707706 0)
(-0.282603238723 -0.0347540936652 0)
(-0.285729576045 -0.030739084093 0)
(-0.288457801696 -0.0270003636623 0)
(-0.290809686433 -0.0235130370638 0)
(-0.292805389996 -0.0202520731673 0)
(-0.294463184793 -0.0171926294304 0)
(-0.295799228879 -0.0143103026839 0)
(-0.296827307895 -0.0115813723466 0)
(-0.29755869932 -0.00898303171501 8.95928767182e-29)
(-0.298002892853 -0.00649346524506 -9.01849484543e-29)
(-0.298168057982 -0.00409176526819 0)
(-0.298057905952 -0.00175834097989 0)
(-0.297663253342 0.00052234173362 0)
(-0.297009477552 0.00275859307663 0)
(-0.296075780146 0.00496502630803 0)
(-0.294861531925 0.00715877833542 0)
(-0.293362421986 0.0093498539012 0)
(-0.291573251744 0.0115464319852 0)
(-0.289488812954 0.0137547383951 0)
(-0.287104283464 0.0159794765417 0)
(-0.284415432083 0.0182243005752 0)
(-0.281418635235 0.0204922968984 0)
(-0.278110735453 0.0227864056151 0)
(-0.27448877297 0.0251097260833 0)
(-0.270549633186 0.0274656641201 0)
(-0.266289662776 0.0298578922819 0)
(-0.261704314504 0.0322901114088 0)
(-0.256787884386 0.0347656188886 0)
(-0.251533403739 0.0372867093913 0)
(-0.245932741378 0.0398539549487 0)
(-0.239976957207 0.0424654323779 0)
(-0.233656927937 0.0451159835814 0)
(-0.226964238062 0.0477966077475 0)
(-0.219892299444 0.0504940890788 0)
(-0.212437635178 0.0531909472373 0)
(-0.204601210604 0.055865833599 0)
(-0.196389774423 0.0584942709976 0)
(-0.187816857637 0.0610501738922 0)
(-0.178903840026 0.0635071039357 0)
(-0.169679938327 0.0658412982033 0)
(-0.160182867887 0.068032570768 0)
(-0.150457500056 0.0700689225455 0)
(-0.140555454974 0.0719471459376 0)
(-0.130534660792 0.0736757514157 0)
(-0.120453610807 0.075281439481 0)
(-0.110374832546 0.0768019833772 0)
(-0.100358046859 0.0782964857744 0)
(-0.0904591411928 0.0798503113898 0)
(-0.0807233868106 0.0815602605855 0)
(-0.0711797687193 0.083537293766 0)
(-0.0618531871746 0.085917354053 0)
(-0.0527233667349 0.0888359547478 0)
(-0.0437402345199 0.0924000079057 0)
(-0.0348785134539 0.0966114669988 0)
(-0.0255920318742 0.101260521226 0)
(-0.0163614903757 0.104999197762 0)
(-0.00556983644673 0.100812151594 0)
(-0.017241482364 -0.0954582771771 0)
(-0.0379811953683 -0.115271677818 0)
(-0.0621685253703 -0.12916377033 0)
(-0.0830156490531 -0.139412773175 0)
(-0.10208709455 -0.145703107523 0)
(-0.119259601626 -0.148393275999 0)
(-0.134760541999 -0.147936117259 0)
(-0.148785087312 -0.144912740347 0)
(-0.161517382001 -0.139921583539 0)
(-0.173119952737 -0.133513293985 0)
(-0.18373400624 -0.126166025215 0)
(-0.1934759408 -0.118271286899 0)
(-0.202438932873 -0.110134773312 0)
(-0.210695193684 -0.101984730693 0)
(-0.218299960535 -0.0939844333646 0)
(-0.225295851468 -0.0862454888437 0)
(-0.231716953209 -0.0788400346004 0)
(-0.237592131215 -0.0718109087553 0)
(-0.242947395894 -0.0651796190803 0)
(-0.247807385296 -0.0589523416206 0)
(-0.252196145737 -0.0531243333547 0)
(-0.256137420206 -0.0476831440955 0)
(-0.259654635535 -0.0426109470053 0)
(-0.262770719454 -0.0378862298542 0)
(-0.265507843134 -0.0334850225867 0)
(-0.26788713534 -0.0293817897378 0)
(-0.269928390191 -0.0255500819234 0)
(-0.2716498169 -0.0219630135955 0)
(-0.273067777688 -0.0185936258502 0)
(-0.274196524798 -0.0154151862306 0)
(-0.275047885685 -0.0124014706884 0)
(-0.27563117505 -0.00952704168158 0)
(-0.275954022865 -0.00676747820788 0)
(-0.276022662089 -0.00409965920194 0)
(-0.275837517558 -0.0015025294891 0)
(-0.275384077453 0.00104159395957 0)
(-0.27469019975 0.00354622297933 0)
(-0.273728177005 0.006026832058 0)
(-0.272496518746 0.00849919143724 0)
(-0.270987627155 0.0109746322245 0)
(-0.269194300958 0.0134614375411 0)
(-0.26710997534 0.0159653864262 0)
(-0.264729169403 0.0184904106246 0)
(-0.262047689294 0.0210392857725 0)
(-0.259062601468 0.0236143088409 1.02835007916e-28)
(-0.255771990393 0.0262178867527 -1.03080730474e-28)
(-0.252174539482 0.0288529669924 0)
(-0.2482689915 0.0315232549525 0)
(-0.24405355759 0.0342331804453 0)
(-0.239525353344 0.0369875948242 0)
(-0.234679945412 0.0397912036295 0)
(-0.229511092868 0.0426477633997 0)
(-0.224010759466 0.0455591022606 0)
(-0.218169456206 0.0485240493709 0)
(-0.211976946739 0.0515373872281 0)
(-0.205423314261 0.0545889510999 0)
(-0.198500334299 0.0576630415401 0)
(-0.191203124834 0.0607381768412 0)
(-0.183531756678 0.0637876343156 0)
(-0.1754932164 0.0667799004209 0)
(-0.167102268014 0.069681306634 0)
(-0.158383743023 0.0724560394549 0)
(-0.149371243036 0.0750722987351 0)
(-0.140110065352 0.0774999267698 0)
(-0.130653526266 0.0797198059394 0)
(-0.121063879846 0.0817219957299 0)
(-0.111414031888 0.0835073724122 0)
(-0.101773765356 0.0851038981076 0)
(-0.0922272974332 0.0865462849026 0)
(-0.0828463891091 0.0878924741825 0)
(-0.0737095570583 0.0892394635151 0)
(-0.0648892482895 0.0906981564546 0)
(-0.0564193415615 0.0923865317866 0)
(-0.0483568607629 0.0944648759346 0)
(-0.0406918377386 0.0971017951609 0)
(-0.033380926348 0.100446475394 0)
(-0.026478309847 0.104575328349 0)
(-0.0192854327227 0.109384240586 0)
(-0.0127346789981 0.113889422693 0)
(-0.00409895691752 0.110588142011 0)
(-0.015805062086 -0.121041090638 0)
(-0.0359063151453 -0.139161235881 0)
(-0.0591827271458 -0.150940605561 0)
(-0.0789789280216 -0.159069958673 0)
(-0.0970875304356 -0.163362965986 0)
(-0.113252697363 -0.164238008055 0)
(-0.127733994005 -0.162173472312 0)
(-0.14072917992 -0.157750613984 0)
(-0.15243958798 -0.151548439668 0)
(-0.163044301149 -0.144093671632 0)
(-0.17269621961 -0.135836715233 0)
(-0.181518646655 -0.127141501872 0)
(-0.189607458198 -0.118288752596 0)
(-0.197035138225 -0.10948613279 0)
(-0.203856218584 -0.100881407279 0)
(-0.210112577843 -0.0925754900161 0)
(-0.215837905721 -0.0846337840939 0)
(-0.221060995686 -0.0770952675862 0)
(-0.225807904128 -0.0699794321949 0)
(-0.230103196973 -0.0632914586126 0)
(-0.233970557116 -0.0570260541683 0)
(-0.237432995194 -0.0511703107314 0)
(-0.240512845055 -0.0457058450361 0)
(-0.243231650156 -0.0406104026324 0)
(-0.245610000971 -0.0358590525484 0)
(-0.247667341372 -0.0314250692112 0)
(-0.249421756054 -0.0272805839827 0)
(-0.250889764839 -0.0233970677907 0)
(-0.252086076432 -0.0197457011491 0)
(-0.25302330255 -0.0162976824354 0)
(-0.253711591457 -0.0130245013025 0)
(-0.254158536909 -0.00989820459604 0)
(-0.254369884404 -0.00689169563029 1.03597067687e-28)
(-0.254349484519 -0.00397940024173 -1.04755432089e-28)
(-0.254094384509 -0.00113843166205 0)
(-0.253586202951 0.00165112724706 0)
(-0.252853839879 0.00440700263305 0)
(-0.251861770482 0.00714769368148 0)
(-0.250606573778 0.00988892626681 0)
(-0.249077286718 0.012641951664 0)
(-0.24726422385 0.0154143171665 0)
(-0.245159116396 0.0182105347938 0)
(-0.242755673569 0.0210329334713 0)
(-0.24004982065 0.0238826022175 0)
(-0.237039628468 0.0267603252895 0)
(-0.23372494637 0.0296673999245 0)
(-0.230106791252 0.0326062407063 0)
(-0.226186566957 0.0355806992805 0)
(-0.221965203073 0.0385960496483 0)
(-0.217442314655 0.0416586119781 0)
(-0.212615490786 0.0447750191135 0)
(-0.207479825408 0.0479511537834 0)
(-0.202027794048 0.0511908330161 0)
(-0.196249561099 0.0544943406258 0)
(-0.190133761396 0.0578569726149 0)
(-0.183668793263 0.061267706959 0)
(-0.176844433844 0.0647084152958 0)
(-0.16965411553 0.0681530763192 0)
(-0.162096462662 0.0715690894188 0)
(-0.154178876134 0.0749160889381 0)
(-0.145916577054 0.0781522690351 0)
(-0.137339119189 0.081229068005 0)
(-0.128483317152 0.0841065408785 0)
(-0.119404445805 0.0867405530315 0)
(-0.110163524217 0.0891035511224 0)
(-0.100834096917 0.091177746622 0)
(-0.0915088820087 0.0929506983091 0)
(-0.0822606363539 0.0944526830192 0)
(-0.0732134295004 0.0957155260007 0)
(-0.0644390627111 0.0967918762968 0)
(-0.0560379808734 0.097785858425 0)
(-0.0481328156606 0.0988318637025 0)
(-0.0407454406262 0.100051158023 0)
(-0.0339765882425 0.10162642455 0)
(-0.0278258699136 0.103764138014 0)
(-0.0222578804087 0.10665231517 0)
(-0.0174072136565 0.110451745012 0)
(-0.0124177153838 0.115119605479 0)
(-0.00869892839635 0.120118302659 0)
(-0.00251683088839 0.117780775541 0)
(-0.014389473248 -0.144916274465 0)
(-0.0334900979988 -0.161720307132 0)
(-0.0555259430693 -0.171557422428 0)
(-0.0740999902903 -0.177651731148 0)
(-0.0911442999164 -0.179994020251 0)
(-0.106278289697 -0.179082145803 0)
(-0.119784523655 -0.175431465473 0)
(-0.131844935385 -0.16963144785 0)
(-0.142660468948 -0.162246263494 0)
(-0.152409215116 -0.153778097196 0)
(-0.161242542657 -0.144647518565 0)
(-0.16928174663 -0.135188835234 0)
(-0.176620727577 -0.125656696228 0)
(-0.183330790068 -0.116238052576 0)
(-0.189466383381 -0.107065606893 0)
(-0.195070296625 -0.0982301574571 0)
(-0.200177733108 -0.0897907660376 0)
(-0.204819129217 -0.0817826304794 0)
(-0.209021907579 -0.0742230135136 0)
(-0.212811462357 -0.0671156945817 0)
(-0.21621166209 -0.0604543501722 0)
(-0.219245086618 -0.0542251547634 0)
(-0.221933135173 -0.0484087908259 0)
(-0.224296068449 -0.0429819875605 0)
(-0.226353002952 -0.0379186728708 0)
(-0.228121843855 -0.0331908152971 0)
(-0.229619163779 -0.0287690408938 0)
(-0.230860032074 -0.0246230839239 0)
(-0.231857770671 -0.0207221326609 0)
(-0.232623635672 -0.0170351185101 0)
(-0.233166401099 -0.0135309718947 0)
(-0.233492262829 -0.0101788952989 0)
(-0.233605196372 -0.00694862460877 0)
(-0.233506361936 -0.00381131870547 0)
(-0.233189166102 -0.000741444362426 0)
(-0.232632046014 0.00228293055922 0)
(-0.231863841464 0.00528267915072 0)
(-0.230841602832 0.00827929445759 0)
(-0.229558851244 0.0112886438002 0)
(-0.228000546558 0.014321404946 0)
(-0.226153724472 0.0173836755331 0)
(-0.224007772776 0.0204778015408 0)
(-0.221555193526 0.0236035004168 0)
(-0.218791923704 0.0267591510903 0)
(-0.215717225988 0.0299430874459 0)
(-0.212333170501 0.0331547339267 0)
(-0.20864378558 0.0363954497403 0)
(-0.204653977545 0.0396689947095 0)
(-0.200368329333 0.0429815573909 0)
(-0.195789908576 0.0463412990344 0)
(-0.190919217671 0.0497574248758 0)
(-0.185753439005 0.0532387899708 0)
(-0.180286110549 0.0567921565111 0)
(-0.174507371939 0.060420185126 0)
(-0.168404774561 0.0641195074529 0)
(-0.161964970284 0.0678786372952 0)
(-0.155175262263 0.0716773872221 0)
(-0.148027493569 0.0754842576687 0)
(-0.140517641834 0.079261035961 0)
(-0.13265491341 0.0829551953664 0)
(-0.124452260992 0.0865180530422 0)
(-0.115948102343 0.0898821777831 0)
(-0.107177195928 0.0930016220943 0)
(-0.0982115938887 0.0958121287012 0)
(-0.0891152758687 0.0982764241606 0)
(-0.0799734255586 0.100368717065 0)