/*--------------------------------*- C++ -*----------------------------------*\
| =========                 |                                                 |
| \\      /  F ield         | OpenFOAM: The Open Source CFD Toolbox           |
|  \\    /   O peration     | Version:  v1806                                 |
|   \\  /    A nd           | Web:      www.OpenFOAM.com                      |
|    \\/     M anipulation  |                                                 |
\*---------------------------------------------------------------------------*/
FoamFile
{
    version     2.0;
    format      ascii;
    class       volVectorField;
    location    "400";
    object      Ua;
}
// * * * * * * * * * * * * * * * * * * * * * * * * * * * * * * * * * * * * * //

dimensions      [0 1 -1 0 0 0 0];


internalField   nonuniform List<vector> 
6400
(
(-0.585214818131 1.02925909965 0)
(-3.70408755489 4.17677644838 0)
(-6.10713503048 6.33281583874 0)
(-7.7792717418 4.91381147085 0)
(-8.78865116489 3.13500436144 0)
(-9.02856039604 -2.37432081308 0)
(-10.2046133773 -5.58396010657 0)
(-10.9934298629 -8.30703483594 0)
(-11.5606686369 -11.1061891592 0)
(-12.0203652854 -13.9638334457 0)
(-12.4052723353 -16.8772440228 0)
(-12.7258407064 -19.83569567 0)
(-12.9908471052 -22.8261905714 0)
(-13.2093283309 -25.8375639847 0)
(-13.3891314919 -28.8609892672 0)
(-13.5365516137 -31.8893858644 0)
(-13.6566768044 -34.9170259956 0)
(-13.7537165937 -37.9393959086 0)
(-13.8311699551 -40.9531124203 0)
(-13.8919222637 -43.9558307229 0)
(-13.9383337735 -46.9461484614 0)
(-13.9723280662 -49.9235226763 0)
(-13.9954723207 -52.8882014986 0)
(-14.0090458598 -55.8411678613 0)
(-14.0140971038 -58.784095436 0)
(-14.0114911372 -61.7193139668 0)
(-14.0019494772 -64.6497880273 0)
(-13.9860825161 -67.5791069581 0)
(-13.9644206395 -70.5114904173 0)
(-13.9374343395 -73.4518183111 0)
(-13.9055920635 -76.4056837139 0)
(-13.8693693411 -79.3795908142 0)
(-13.8295804514 -82.3812194361 0)
(-13.7869791988 -85.4203840594 0)
(-13.7427332095 -88.5071052621 0)
(-13.6882978906 -91.6431607381 0)
(-13.6070680028 -94.7800335438 0)
(-13.4887714463 -97.8275583021 0)
(-13.3457398971 -100.56113053 0)
(-13.1885153483 -102.952670333 0)
(-13.0241911668 -104.987591045 0)
(-12.8559485845 -106.657146092 0)
(-12.6850988005 -107.955682506 0)
(-12.5124885075 -108.879994204 0)
(-12.3388874537 -109.429152465 0)
(-12.1649828371 -109.60431927 0)
(-11.9913724565 -109.40858134 0)
(-11.8186078004 -108.84686461 0)
(-11.6472405187 -107.925926435 0)
(-11.4778527883 -106.654395088 0)
(-11.3110770985 -105.042845169 0)
(-11.1476125724 -103.103902151 0)
(-10.9882392421 -100.852373917 0)
(-10.8338275229 -98.305396992 0)
(-10.6853401317 -95.4825819902 0)
(-10.5438228216 -92.4061322538 0)
(-10.4103817187 -89.1009069469 0)
(-10.2861443857 -85.5943919576 0)
(-10.1722040968 -81.9165440614 0)
(-10.0695470872 -78.0994725434 0)
(-9.97896561397 -74.1769339233 0)
(-9.90096061337 -70.1836228735 0)
(-9.83563965911 -66.1542626195 0)
(-9.78261788252 -62.122511479 0)
(-9.74092438122 -58.1197215082 0)
(-9.70892935995 -54.173602067 0)
(-9.68426568145 -50.3068301158 0)
(-9.66381847884 -46.5357150336 0)
(-9.64358556119 -42.8688523757 0)
(-9.61890625206 -39.3061706591 0)
(-9.58376436191 -35.8375320834 0)
(-9.53254047058 -32.4434465937 0)
(-9.45556224388 -29.0917090263 0)
(-9.3512552836 -25.7479488287 0)
(-9.19537052093 -22.3533719591 0)
(-9.02167301882 -18.8941646 0)
(-8.68909716916 -15.1970623973 0)
(-8.44155323529 -11.4084312586 0)
(-6.83841401493 -6.10475510991 0)
(-5.47716674521 -0.91860495771 0)
(-1.98661011856 -2.16226728277 0)
(-1.66664497274 -4.07600085471 0)
(-3.60666909532 -6.4701976035 0)
(-5.0621618349 -5.56862991125 0)
(-6.96219001036 -3.75776732393 0)
(-8.73608491918 -1.65849074543 0)
(-10.1865513283 0.273247831535 0)
(-11.4688552714 2.03619639555 0)
(-12.6662708589 3.76418724736 0)
(-13.7929700768 5.51037001155 0)
(-14.8444772066 7.29280128598 0)
(-15.816710553 9.11839775691 0)
(-16.7096227569 10.9898483286 0)
(-17.5262136603 12.907177261 0)
(-18.2709327809 14.8688237005 0)
(-18.9487097143 16.8725182491 0)
(-19.5645389104 18.9157828618 0)
(-20.123287149 20.9961617103 0)
(-20.6295679626 23.1113572004 0)
(-21.0876565171 25.259331188 0)
(-21.5014502186 27.4383956689 0)
(-21.8744636765 29.6472823016 0)
(-22.2098448508 31.8852038418 0)
(-22.5103995691 34.1519001573 0)
(-22.7786198065 36.4476817363 0)
(-23.0167122125 38.7734631781 0)
(-23.2266252292 41.1307987536 0)
(-23.410077256 43.5219131971 0)
(-23.5685751203 45.949741337 0)
(-23.7034556121 48.4179655867 0)
(-23.8158502197 50.9310791487 0)
(-23.9068417917 53.4944037708 0)
(-23.9770451558 56.1142149838 0)
(-24.0284441481 58.7972980533 0)
(-24.0641557124 61.5510026293 0)
(-24.1099401089 64.3775966216 0)
(-24.1782549228 67.1302545437 0)
(-24.248896834 69.6972476685 0)
(-24.2906852504 71.9218625211 0)
(-24.295140291 73.8062724125 0)
(-24.2618976405 75.350602751 0)
(-24.1909608299 76.5550046279 0)
(-24.0814805927 77.4211763445 0)
(-23.9323090183 77.9525572112 0)
(-23.7423019945 78.154220831 0)
(-23.5103166816 78.0328530884 0)
(-23.2351634482 77.5967746401 0)
(-22.9156059777 76.8559560577 0)
(-22.5503912021 75.8220169995 0)
(-22.1382871043 74.5082402069 0)
(-21.678123586 72.9296008911 0)
(-21.1688427224 71.1028202224 0)
(-20.6095631468 69.0464211746 0)
(-19.999661963 66.7807808494 0)
(-19.3388758161 64.3281448048 0)
(-18.6274207992 61.7125869271 0)
(-17.8661291123 58.9598738145 0)
(-17.0565957672 56.0972168706 0)
(-16.2013262422 53.1528795521 0)
(-15.3038705163 50.1556393933 0)
(-14.3689279132 47.1340976522 0)
(-13.4024044063 44.1158659257 0)
(-12.4114066111 41.1266550602 0)
(-11.4041610028 38.1893240976 0)
(-10.389850002 35.3229381726 0)
(-9.37837862011 32.5419026169 0)
(-8.38005614972 29.8552272795 0)
(-7.40528803267 27.2659748136 0)
(-6.4640963533 24.7709962903 0)
(-5.56604640206 22.3608995039 0)
(-4.71909476645 20.0207713525 0)
(-3.9314419701 17.7306637594 0)
(-3.20531626042 15.4695622973 0)
(-2.55325591879 13.2133199865 0)
(-1.95196993282 10.9600084592 0)
(-1.47474667964 8.68915425135 0)
(-0.909777231537 6.56227207585 0)
(-0.956839893927 4.47237657728 0)
(0.960574037277 4.64493237749 0)
(-2.61405498445 5.33414995023 0)
(-5.03934807843 -5.24091752269 0)
(-3.75296271436 -6.9753465289 0)
(-4.88780827684 -4.31436857549 -2.07062277574e-30)
(-4.89357067754 -3.04986383053 1.28857122704e-30)
(-5.15199440859 -2.34725829499 2.69656419256e-29)
(-5.68219298264 -2.21229452443 -2.20327528928e-29)
(-6.36629639681 -2.38152484136 6.99940865983e-29)
(-7.13373852712 -2.65138385349 -6.22501946463e-29)
(-7.91331688243 -2.95895674962 0)
(-8.65402906609 -3.30294369957 0)
(-9.33012848712 -3.69548141616 0)
(-9.9325982237 -4.14680452182 0)
(-10.4607729979 -4.66369270146 0)
(-10.9181163839 -5.25051826667 0)
(-11.3101156322 -5.90981719903 0)
(-11.6429889166 -6.64257713308 0)
(-11.9229260853 -7.44857285899 0)
(-12.1557213368 -8.32674143656 0)
(-12.3466232079 -9.27551420527 0)
(-12.5002865138 -10.2930785271 0)
(-12.6207761188 -11.3775799356 0)
(-12.7116017649 -12.5272847742 0)
(-12.7757690599 -13.740711249 0)
(-12.8158363188 -15.016739656 0)
(-12.8339708707 -16.3547029379 0)
(-12.8320022603 -17.7544670196 0)
(-12.8114712637 -19.216502082 0)
(-12.7736742863 -20.7419495786 0)
(-12.7197025701 -22.3327008257 0)
(-12.6504781709 -23.9914494039 -1.72162773574e-27)
(-12.5667747296 -25.7218648936 1.72015792725e-27)
(-12.469244332 -27.5284811937 0)
(-12.3581742915 -29.4175275946 0)
(-12.2326769373 -31.3951781486 0)
(-12.0859273704 -33.4734536285 0)
(-11.901583028 -35.6046617392 0)
(-11.7024306413 -37.5259359553 0)
(-11.5203483996 -39.1617739958 0)
(-11.3654053497 -40.5164998887 0)
(-11.2338997636 -41.5875777984 0)
(-11.1227143371 -42.3757168312 0)
(-11.0314500206 -42.8857127848 0)
(-10.9605424582 -43.1249812305 0)
(-10.9103688215 -43.1029271592 0)
(-10.8811606213 -42.8308128285 0)
(-10.8729923734 -42.3216213149 0)
(-10.8856914167 -41.5898453593 0)
(-10.9187330795 -40.6512772829 0)
(-10.9711569555 -39.5228408865 0)
(-11.04149644 -38.2224647595 0)
(-11.1277112748 -36.7689873034 0)
(-11.2271205733 -35.1820798897 0)
(-11.3363396856 -33.4821737733 0)
(-11.4512251554 -31.6903673051 0)
(-11.5668338243 -29.8282898771 0)
(-11.6774041792 -27.9178955459 0)
(-11.7763701747 -25.981167801 0)
(-11.8564194085 -24.0397230293 0)
(-11.9096067347 -22.1143165573 0)
(-11.9275326438 -20.2242682943 0)
(-11.9015896906 -18.3868431419 0)
(-11.8232739013 -16.6166328251 0)
(-11.6845464808 -14.9249948962 0)
(-11.4782251295 -13.3196057552 0)
(-11.1983672656 -11.8041789647 0)
(-10.8406243757 -10.3783951592 0)
(-10.4024905002 -9.03806201204 0)
(-9.88352559028 -7.77556586367 0)
(-9.28524433146 -6.58058227566 0)
(-8.611445133 -5.44130854831 0)
(-7.8668401442 -4.34572346626 0)
(-7.05981405734 -3.28478820467 0)
(-6.19309503973 -2.25284825968 0)
(-5.28730277348 -1.25961501919 0)
(-4.31083615354 -0.311650159881 0)
(-3.3839172501 0.51857027247 0)
(-2.18698734175 1.32557780079 0)
(-1.88705461886 1.79773674493 0)
(1.70074991321 4.26088278907 0)
(-3.76908715916 5.67237825902 0)
(-5.29041855313 -8.09133155371 0)
(-6.41666639576 -3.31369251498 0)
(-4.49836350412 -2.34720676661 0)
(-3.58280654617 -3.06044971509 0)
(-4.13958956104 -3.4477351198 0)
(-5.08607704279 -3.55139936546 0)
(-6.07414316828 -3.48496262121 0)
(-7.04417128181 -3.27319314891 0)
(-7.9503833795 -2.95230036701 0)
(-8.76575852556 -2.56495678604 0)
(-9.48901334821 -2.14113820466 0)
(-10.1299400172 -1.69688070911 0)
(-10.6996469076 -1.23928156921 0)
(-11.208258389 -0.77028518596 0)
(-11.6647596737 -0.288822960784 0)
(-12.0768731536 0.207878434918 0)
(-12.4509867915 0.723424154436 0)
(-12.7922668201 1.2616845069 0)
(-13.1048662169 1.8264614208 0)
(-13.3921283209 2.42132176639 0)
(-13.6567549565 3.04954016962 0)
(-13.9009425718 3.71411069877 0)
(-14.1264937099 4.41779955958 0)
(-14.3349069326 5.16322262878 0)
(-14.5274485721 5.95293652922 0)
(-14.705208036 6.78953721829 0)
(-14.8691434903 7.67576318752 0)
(-15.0201091049 8.61459863663 0)
(-15.1588971499 9.6093880641 0)
(-15.2861993409 10.6639312405 0)
(-15.4027564822 11.7826525691 0)
(-15.5089007555 12.9705990663 0)
(-15.6058522537 14.2340120168 0)
(-15.6927054244 15.5796580919 0)
(-15.7788875588 17.0187162783 0)
(-15.855164181 18.4239525695 0)
(-15.8926099209 19.6208895678 0)
(-15.8893123233 20.608182891 0)
(-15.8523467654 21.3777165711 0)
(-15.7824668141 21.928195956 0)
(-15.6780729265 22.2649146887 0)
(-15.5390447488 22.3970562566 0)
(-15.3664195874 22.33662346 0)
(-15.1615052107 22.0979933024 0)
(-14.9257148663 21.697379775 0)
(-14.6607078563 21.1522564992 3.58325673645e-27)
(-14.3684840472 20.4808594436 -3.61515059299e-27)
(-14.0514106154 19.7017795653 0)
(-13.7122329013 18.8336224227 0)
(-13.3540841047 17.8947238913 0)
(-12.9804831523 16.9029184173 0)
(-12.5953112447 15.8753499164 0)
(-12.2027611371 14.8283112069 0)
(-11.8072541715 13.7770929434 0)
(-11.4133192481 12.7358270862 0)
(-11.0254284675 11.7173117643 0)
(-10.647787423 10.7328157472 0)
(-10.2840827015 9.79186769785 2.29127359215e-27)
(-9.93719695644 8.90204992433 -2.34692199599e-27)
(-9.60890945045 8.06882213105 0)
(-9.29960915274 7.29541049593 0)
(-9.00805347686 6.5827934283 0)
(-8.73120811529 5.92981399777 0)
(-8.46420334892 5.33343230055 0)
(-8.20042408055 4.78912443524 0)
(-7.93176289775 4.29141166542 0)
(-7.64897752556 3.83451333692 0)
(-7.34227592288 3.41306059263 0)
(-7.00170624169 3.02297839692 0)
(-6.61838823439 2.66223795413 0)
(-6.18363905804 2.33222430306 0)
(-5.69397940727 2.03765774187 0)
(-5.13964278024 1.79074323732 0)
(-4.53904535349 1.60244318464 0)
(-3.8411931252 1.50887570421 0)
(-3.21286055866 1.48872246895 0)
(-2.18972508442 1.71490072559 0)
(-2.40306078055 1.8408707065 0)
(2.07973725508 4.37080973405 0)
(-5.15484945599 5.38905247979 0)
(10.0451786852 -16.3044072128 0)
(-3.54441579788 -3.15169759264 0)
(-1.87915540815 -3.07064761322 0)
(-2.19368951454 -4.21734200131 0)
(-3.87160991835 -4.55226506585 0)
(-5.24336787575 -4.53636915479 0)
(-6.28423456597 -4.35890829354 0)
(-7.16027069825 -4.06960379827 0)
(-7.90394272646 -3.72651708502 0)
(-8.52623594452 -3.37959036562 0)
(-9.05097471283 -3.05771919672 0)
(-9.50150062643 -2.77466061572 0)
(-9.89421084922 -2.53606933055 0)
(-10.2401235438 -2.34337834433 0)
(-10.547046457 -2.19588647766 0)
(-10.8206168067 -2.09200130588 0)
(-11.0648463598 -2.0299454521 0)
(-11.2825749484 -2.00811343203 0)
(-11.4758503275 -2.02522785344 0)
(-11.6461990459 -2.08039252443 0)
(-11.7948009504 -2.17309331088 0)
(-11.9226001028 -2.30317915012 0)
(-12.0303762565 -2.47083890679 0)
(-12.118791104 -2.67658606893 0)
(-12.1884169044 -2.92125344218 0)
(-12.2397547737 -3.20600234552 0)
(-12.2732429243 -3.53234331325 0)
(-12.2892677742 -3.90217456081 0)
(-12.288149895 -4.31782493568 0)
(-12.2701881184 -4.78213696826 0)
(-12.2355296635 -5.29848654606 -2.41458720408e-27)
(-12.1845224692 -5.87102339922 2.42343892207e-27)
(-12.1166614151 -6.50427337136 0)
(-12.0331998178 -7.20466250615 0)
(-11.9287860646 -7.97694577737 0)
(-11.8185069715 -8.67198035993 0)
(-11.7182351992 -9.23178103495 0)
(-11.6297806554 -9.64346133508 0)
(-11.5542401807 -9.90504701256 0)
(-11.4912227382 -10.020841507 0)
(-11.4387123261 -9.99782005967 0)
(-11.3946379034 -9.8456914452 0)
(-11.3572348141 -9.57693054234 0)
(-11.3246295395 -9.20603474431 0)
(-11.2946164636 -8.74864271017 0)
(-11.264690942 -8.22081395042 0)
(-11.2321195866 -7.63844569865 0)
(-11.1939787503 -7.01678443525 0)
(-11.1471940812 -6.37003710822 0)
(-11.0886064347 -5.71108756167 0)
(-11.0150652101 -5.0513143728 0)
(-10.9235433223 -4.40049213987 0)
(-10.8112700855 -3.76676161836 0)
(-10.6758781581 -3.15664879073 0)
(-10.5155571406 -2.57512171318 0)
(-10.3292018736 -2.02567170364 0)
(-10.1165382764 -1.510417537 0)
(-9.87820595982 -1.03023015794 0)
(-9.61577407994 -0.584885573226 0)
(-9.33166890459 -0.173248050098 0)
(-9.02899664121 0.206510105619 0)
(-8.71125775188 0.556657860043 0)
(-8.38196205944 0.879630730336 0)
(-8.04417739356 1.17775133635 0)
(-7.70004697083 1.45296546358 0)
(-7.35035908953 1.70661036263 0)
(-6.99415954206 1.93924719206 0)
(-6.62865320541 2.15052348105 0)
(-6.24893819573 2.33917598042 0)
(-5.84900655154 2.50290523916 0)
(-5.42025555557 2.63898747852 0)
(-4.95812280527 2.74342042457 0)
(-4.44751567962 2.81556523618 0)
(-3.91000672765 2.84944352494 0)
(-3.27590258552 2.86773549209 0)
(-2.76929462599 2.8340464149 0)
(-1.77116890482 2.94516516568 0)
(-2.45425700586 2.80872076011 0)
(2.92652612367 5.20564082124 0)
(-6.54539429752 5.51746106481 0)
(18.9217092803 -15.5486646329 0)
(-5.73908536352 -2.39001203425 0)
(-1.59932910369 -4.74880206649 0)
(-2.5568464141 -5.93571181214 0)
(-4.62690042843 -5.9597038649 0)
(-5.86336730427 -5.6871745704 0)
(-6.65854118705 -5.2720052055 0)
(-7.29618484178 -4.77526864522 0)
(-7.82125497971 -4.26514746381 0)
(-8.25416110493 -3.78159454324 0)
(-8.62452205284 -3.33902009335 0)
(-8.95488897491 -2.93978961077 0)
(-9.25777807251 -2.5812519458 0)
(-9.53980221629 -2.25849328263 0)
(-9.80466740459 -1.96577042888 0)
(-10.0544261576 -1.69734589538 0)
(-10.2900879592 -1.44787140208 0)
(-10.5120541161 -1.21249951521 0)
(-10.7204273172 -0.986877210553 0)
(-10.9151984807 -0.767095230582 0)
(-11.0963450178 -0.549622669144 0)
(-11.2638780339 -0.331236985802 0)
(-11.4178631773 -0.108956927885 0)
(-11.5584277721 0.120021215566 0)
(-11.6857612325 0.358382932921 0)
(-11.800112508 0.608754325601 0)
(-11.9017872899 0.873760095426 0)
(-11.9911449651 1.15608786347 0)
(-12.0685984562 1.45855080874 0)
(-12.1346096061 1.78418045692 0)
(-12.1897026068 2.13627165476 0)
(-12.2344532378 2.51862127259 0)
(-12.2696141877 2.93526533226 0)
(-12.2960164427 3.39176740202 0)
(-12.3140987323 3.88458369574 0)
(-12.3115217769 4.30924512073 0)
(-12.284174865 4.65194089004 0)
(-12.2320367757 4.90649445213 0)
(-12.156611107 5.07103994866 0)
(-12.0597068672 5.14753927797 0)
(-11.9427860411 5.14212445507 0)
(-11.80737484 5.06421013709 0)
(-11.6554299699 4.92515045476 0)
(-11.4892231829 4.73725217841 0)
(-11.3111197466 4.51307111168 0)
(-11.1234661429 4.2647970843 0)
(-10.9285285735 4.00372234367 0)
(-10.7284137598 3.73984359985 0)
(-10.52497222 3.48161302452 0)
(-10.3197048831 3.23582078709 0)
(-10.1136833594 3.00758945817 0)
(-9.90748749274 2.80045797967 0)
(-9.70116528578 2.61653671371 0)
(-9.49422269936 2.45671129286 0)
(-9.28565135955 2.32087897139 0)
(-9.07400030893 2.20819985255 0)
(-8.85749482136 2.11735220188 0)
(-8.63419938217 2.04677870686 0)
(-8.40221426489 1.99491532096 0)
(-8.15988517392 1.96038936112 0)
(-7.90599576492 1.94217788191 0)
(-7.63990675199 1.93971247155 0)
(-7.36160200154 1.95292385192 0)
(-7.0716152783 1.98221769463 0)
(-6.77080956824 2.02838597908 0)
(-6.46005062505 2.09244726442 0)
(-6.13971476797 2.17545501058 0)
(-5.80933319229 2.27819589916 0)
(-5.46680337021 2.40092933271 0)
(-5.10902094371 2.5427899453 0)
(-4.72921690511 2.70175682156 0)
(-4.32457534843 2.87253974438 0)
(-3.87676489425 3.050119007 0)
(-3.41188333022 3.21767421555 0)
(-2.83594878996 3.38281924385 0)
(-2.43144565032 3.47763103996 0)
(-1.395811741 3.69120010151 0)
(-2.52855951588 3.53176546894 0)
(3.95651871686 6.05742573013 0)
(-8.13217053421 5.79036838524 0)
(27.7602735064 -15.3990775243 0)
(-9.8071094716 -3.17909647864 0)
(-1.77465452021 -6.95997553537 0)
(-3.25646566634 -7.46518085705 0)
(-5.27041664695 -6.99499471951 0)
(-6.12536123704 -6.43001546171 0)
(-6.61524508513 -5.80737138464 0)
(-7.02326727057 -5.17950952114 0)
(-7.36636795792 -4.60072349834 0)
(-7.65997582151 -4.08845576575 0)
(-7.92814642086 -3.64087519935 1.19931031068e-27)
(-8.1851912188 -3.25140215183 -1.18364023252e-27)
(-8.43633052449 -2.91270737115 0)
(-8.68262255074 -2.61760015643 0)
(-8.92349333185 -2.35958322924 0)
(-9.15762455449 -2.1331601159 0)
(-9.3833731585 -1.93385988858 0)
(-9.59905575388 -1.75812232619 0)
(-9.80312244422 -1.60315622456 0)
(-9.99423631516 -1.46681244347 0)
(-10.1712931166 -1.34747685309 0)
(-10.3334110425 -1.24398400258 0)
(-10.4799078456 -1.15554922862 0)
(-10.6102741659 -1.08171883085 0)
(-10.7241469905 -1.02233444998 0)
(-10.8212858081 -0.977510968114 0)
(-10.9015510944 -0.947623985797 0)
(-10.9648878106 -0.933309408152 0)
(-11.0113075031 -0.935466882951 0)
(-11.0408815459 -0.955286961682 0)
(-11.0537153686 -0.994250055778 0)
(-11.0499484845 -1.05424462884 2.65202951169e-27)
(-11.0296856535 -1.1374211009 -2.67483829442e-27)
(-10.9930241953 -1.24686503928 0)
(-10.9414731632 -1.36873473116 0)
(-10.8847293376 -1.45274883292 0)
(-10.8246579881 -1.49249925079 0)
(-10.7616782361 -1.4845664702 0)
(-10.6961133389 -1.42905285781 0)
(-10.6279053186 -1.32935250538 0)
(-10.5562733862 -1.19111322861 0)
(-10.4799348502 -1.0212772132 0)
(-10.3974949065 -0.82747149506 0)
(-10.3076089783 -0.617457104374 0)
(-10.2089942024 -0.398568730093 0)
(-10.1004595606 -0.177260855096 0)
(-9.98097597317 0.0411758644865 0)
(-9.84974084019 0.252742630973 0)
(-9.70621627574 0.454732306308 0)
(-9.55014445744 0.645625521392 0)
(-9.38154372876 0.824905840254 0)
(-9.2006842692 0.992824419925 0)
(-9.00804207454 1.15014250521 0)
(-8.80423345663 1.29788092709 0)
(-8.58993544282 1.4370982956 0)
(-8.36580081649 1.56871838339 0)
(-8.13237926611 1.69341903838 0)
(-7.89005889225 1.8115923422 0)
(-7.63904203922 1.92337758018 0)
(-7.37936669973 2.02876306775 0)
(-7.110975589 2.12774424963 0)
(-6.83382475374 2.22051824549 0)
(-6.54800490866 2.30768913571 0)
(-6.25384477074 2.39045293679 0)
(-5.95193478455 2.47073680292 0)
(-5.64307759741 2.55124094665 0)
(-5.32801541594 2.63543162005 0)
(-5.00725476264 2.72730855902 0)
(-4.68021176444 2.83117671689 0)
(-4.3459363643 2.95094965164 0)
(-3.99955025896 3.08995735135 0)
(-3.64120930368 3.24825377662 0)
(-3.25101631743 3.42588588254 0)
(-2.86287056858 3.60827303193 0)
(-2.35720826676 3.80492559755 0)
(-2.08259299106 3.93517462863 0)
(-1.02031444897 4.20052868687 0)
(-2.69431580335 4.00971538012 0)
(5.07201613304 6.74982060317 0)
(-9.90723320175 5.99202574647 0)
(36.8936504177 -14.9774838072 0)
(-14.809248273 -4.65023975198 0)
(-1.44603008503 -9.28979453056 0)
(-3.69326669364 -8.76949064098 0)
(-5.45711601715 -7.82380822798 0)
(-5.93791746721 -7.00518820233 0)
(-6.22295610812 -6.21998570176 0)
(-6.50141720033 -5.50458909591 0)
(-6.75328221758 -4.88525537671 0)
(-6.98855208854 -4.35470625356 0)
(-7.2237732845 -3.89769314995 0)
(-7.46527610468 -3.50088804046 0)
(-7.71282493013 -3.15322896997 0)
(-7.96399434986 -2.84541561131 0)
(-8.21576960001 -2.56981558274 0)
(-8.46503066612 -2.32032893039 0)
(-8.70880970236 -2.09212507522 0)
(-8.94445725677 -1.88135955838 0)
(-9.16971840192 -1.68493570417 0)
(-9.38274226243 -1.50031904159 0)
(-9.58205543722 -1.3253958575 0)
(-9.76652018346 -1.15836555588 0)
(-9.93528908415 -0.99765993761 0)
(-10.0877620482 -0.841881794919 0)
(-10.2235483068 -0.689757852144 0)
(-10.3424348509 -0.540099854414 0)
(-10.4443598486 -0.391771399929 0)
(-10.5293950795 -0.24365506175 0)
(-10.5977236536 -0.0946210015497 0)
(-10.6496494463 0.0565116820219 0)
(-10.6855336676 0.211013803665 0)
(-10.7059517071 0.370306748302 0)
(-10.7112632629 0.536048728794 0)
(-10.7027737062 0.71018268764 0)
(-10.6789427575 0.880685720894 0)
(-10.6378410636 1.0280824776 0)
(-10.5791747143 1.14958907962 0)
(-10.5038063279 1.24474337681 0)
(-10.4131250556 1.31505319563 0)
(-10.3087212901 1.36341142245 0)
(-10.1921398242 1.39375525579 0)
(-10.0648220053 1.41073521076 0)
(-9.92816238256 1.41921815145 0)
(-9.78349678117 1.42378882547 0)
(-9.63200585321 1.42840986977 2.39104088287e-27)
(-9.47462313272 1.43624579762 -2.40456903987e-27)
(-9.31198989801 1.44960690427 0)
(-9.14444413904 1.46998567124 0)
(-8.97202912633 1.49816697461 0)
(-8.79452104337 1.53438397817 0)
(-8.61147762071 1.57848914648 0)
(-8.42230397155 1.63011266804 0)
(-8.22632782946 1.68878984539 0)
(-8.02287485386 1.75404541122 0)
(-7.81133478081 1.82543157428 0)
(-7.59120992218 1.90252259069 0)
(-7.36213994941 1.984877001 0)
(-7.12390208943 2.07198182186 0)
(-6.87639120821 2.16320276879 0)
(-6.61959251438 2.25775885943 0)
(-6.35356106268 2.35474688944 0)
(-6.07842635382 2.45322557657 0)
(-5.79442635029 2.55236925421 0)
(-5.50197442091 2.651673194 0)
(-5.20170988129 2.75120712981 0)
(-4.89455928767 2.85180798124 0)
(-4.58159521457 2.95533314208 0)
(-4.26406200196 3.06457200981 0)
(-3.94257668621 3.18321014656 0)
(-3.61814496719 3.31516182376 0)
(-3.28790715851 3.46442240724 0)
(-2.95600178486 3.63195060428 0)
(-2.60256297477 3.81895041762 0)
(-2.27350402767 4.01049768542 0)
(-1.82485112783 4.21763952129 0)
(-1.68518540349 4.34959758611 0)
(-0.589037231691 4.62676128212 0)
(-2.912762016 4.35717115025 0)
(6.31431486206 7.31541530976 0)
(-11.8252230122 6.10815205038 0)
(46.7935985037 -14.697239136 0)
(-20.6810519068 -6.74708863799 0)
(-0.492300033982 -11.4733134791 0)
(-3.93970544644 -9.6953052868 0)
(-5.30627097251 -8.37865609606 0)
(-5.49355182713 -7.37256795143 0)
(-5.67847163752 -6.48376719505 0)
(-5.9021932864 -5.73037324426 0)
(-6.12078767721 -5.10560639049 0)
(-6.3428515273 -4.58214310119 0)
(-6.57841227612 -4.13632545955 0)
(-6.82807218034 -3.75091560912 0)
(-7.08842383734 -3.41280500521 0)
(-7.35522038295 -3.11183628127 0)
(-7.62417859467 -2.84028643193 0)
(-7.89123684448 -2.59239201818 0)
(-8.15273533127 -2.36387800628 0)
(-8.40551540841 -2.15156300991 0)
(-8.64693940681 -1.95305971324 0)
(-8.87486175617 -1.76655702842 0)
(-9.08757742198 -1.59066497915 0)
(-9.28376300737 -1.42430718932 0)
(-9.46241884987 -1.26664804711 0)
(-9.62281651256 -1.11704497342 0)
(-9.76445360102 -0.975017684691 0)
(-9.88701615767 -0.840228825444 0)
(-9.99034818787 -0.712472648823 0)
(-10.0744278659 -0.591667243077 0)
(-10.139347809 -0.477854388643 0)
(-10.1853052025 -0.371193740002 0)
(-10.21258302 -0.271978234825 0)
(-10.2215787654 -0.180611838003 0)
(-10.212754401 -0.0976709111459 2.94217758287e-27)
(-10.1869588652 -0.0238008847873 -2.98522598298e-27)
(-10.1453504446 0.0502016075996 0)
(-10.0904663932 0.131175638825 0)
(-10.022992237 0.220525779102 0)
(-9.94345949058 0.318399987279 0)
(-9.85236724999 0.423752321602 0)
(-9.75012025608 0.534642451935 0)
(-9.63700005486 0.648684474232 0)
(-9.51321334196 0.763513976782 0)
(-9.37899524789 0.877110913006 0)
(-9.23468635119 0.987965951382 0)
(-9.08074492336 1.09515148372 0)
(-8.91772150402 1.19832297542 0)
(-8.74622471675 1.29765057447 0)
(-8.56688130602 1.3936962968 0)
(-8.38028655269 1.48726615342 0)
(-8.18695026191 1.57926551184 0)
(-7.98724895047 1.67057605721 0)
(-7.78139371089 1.7619654169 0)
(-7.56941948996 1.85403324772 0)
(-7.35119819314 1.9471929228 0)
(-7.12647411882 2.04168175975 0)
(-6.89491629056 2.13758988636 0)
(-6.656177462 2.23489747621 0)
(-6.40995004675 2.33350445565 0)
(-6.15600619865 2.43325638127 0)
(-5.89422004688 2.53395422823 0)
(-5.62456871305 2.63537027989 0)
(-5.34712941419 2.73727115592 0)
(-5.06207992332 2.83948559712 0)
(-4.76973141636 2.94201317542 0)
(-4.47056524115 3.04524558922 0)
(-4.16533451851 3.15007484069 0)
(-3.85498650379 3.25835880347 0)
(-3.54083204499 3.37277341911 0)
(-3.22389285412 3.49702624988 0)
(-2.90631500867 3.63505337192 0)
(-2.58644784287 3.79104612618 0)
(-2.27210108855 3.96592349663 0)
(-1.94337996417 4.16047501804 0)
(-1.66057374109 4.35788871241 0)
(-1.25499729899 4.56899416991 0)
(-1.24749531297 4.6916180969 0)
(-0.0952597802331 4.96414160015 0)
(-3.17558813166 4.59191321829 0)
(7.7416211163 7.78485724412 0)
(-13.8899305257 6.15807404963 0)
(57.4514866272 -14.5140363936 0)
(-27.3645461353 -9.20254864146 0)
(1.20973365036 -13.2776218855 0)
(-4.07372460046 -10.2524262792 0)
(-4.91968800149 -8.75768492988 0)
(-4.93979707822 -7.63906028102 0)
(-5.10865351907 -6.69999352765 0)
(-5.3234670167 -5.94237193828 0)
(-5.54152970521 -5.32960539493 0)
(-5.7735738689 -4.82187491988 0)
(-6.02487126538 -4.39113788156 0)
(-6.29275120174 -4.01779093833 0)
(-6.57236485714 -3.68739139721 0)
(-6.85866322286 -3.38930221972 0)
(-7.14678081718 -3.1158665488 0)
(-7.43224108318 -2.86166260396 0)
(-7.7111124813 -2.62287017498 0)
(-7.98006973306 -2.39678393748 0)
(-8.2363807583 -2.18145949447 0)
(-8.47785527151 -1.97546398473 0)
(-8.70277841795 -1.77770594315 0)
(-8.90984181167 -1.58732276647 0)
(-9.09807888363 -1.40360882792 0)
(-9.26680782733 -1.22597035023 0)
(-9.4155836773 -1.05389769419 0)
(-9.54415879212 -0.886946846258 0)
(-9.65245178548 -0.724727809491 0)
(-9.74052310311 -0.56689107137 0)
(-9.80855494739 -0.413124498001 0)
(-9.85684764922 -0.263124636807 0)
(-9.88577947598 -0.11662764406 0)
(-9.89592172855 0.0267115572362 0)
(-9.88768592508 0.167057168112 0)
(-9.86236351965 0.305035410474 0)
(-9.81872449121 0.435811942443 0)
(-9.75765111025 0.557761791916 0)
(-9.67977109836 0.670850290772 0)
(-9.5860499897 0.775739817987 0)
(-9.47763810121 0.873560327513 0)
(-9.35574414074 0.965673515957 0)
(-9.22153984579 1.05348034162 0)
(-9.07610674092 1.13829122291 0)
(-8.92042706826 1.22123567989 0)
(-8.7553912829 1.30320730562 0)
(-8.58179660572 1.38486391665 0)
(-8.40033955889 1.46668120138 0)
(-8.2116151654 1.54903138609 0)
(-8.01612336002 1.63225628644 0)
(-7.81427500096 1.71671705702 0)
(-7.60639233106 1.80281302088 0)
(-7.39270430645 1.89096906631 0)
(-7.173339589 1.98159698481 0)
(-6.94832126559 2.07504082931 0)
(-6.71756759359 2.17152089979 0)
(-6.48090301459 2.27108883846 0)
(-6.23808293984 2.3736036643 0)
(-5.98882919893 2.47874062637 0)
(-5.73287750334 2.58601266287 0)
(-5.47002120876 2.69483298017 0)
(-5.20015312478 2.80456525081 0)
(-4.92328258935 2.91460278414 0)
(-4.63954091639 3.02442175294 0)
(-4.34917968501 3.13366579186 0)
(-4.0525693489 3.24219368417 0)
(-3.75021122796 3.35036910781 0)
(-3.44281288109 3.45897233201 0)
(-3.1313179579 3.56990506892 0)
(-2.81697168782 3.68572882749 0)
(-2.50091293798 3.81028140119 0)
(-2.1860459672 3.94739959026 0)
(-1.87137327014 4.10171219612 0)
(-1.56828182753 4.27382628081 0)
(-1.25700245517 4.46294563445 0)
(-1.01402117635 4.64981879303 0)
(-0.643709364808 4.8452327218 0)
(-0.768995416437 4.94140232846 0)
(0.456088480295 5.17898744113 0)
(-3.50371977479 4.71459264225 0)
(9.43615656181 8.15993563483 0)
(-16.1183799235 6.12306093979 0)
(68.7298755965 -14.4755203969 0)
(-34.7722060392 -11.8746871195 0)
(3.68942679744 -14.6239130164 0)
(-4.24590782528 -10.5327420959 0)
(-4.41060444578 -9.0452610935 0)
(-4.39327256104 -7.85416986489 0)
(-4.58589230382 -6.89756465689 0)
(-4.80692473785 -6.15289389955 0)
(-5.03561356566 -5.55989234771 0)
(-5.28403306123 -5.07233506778 0)
(-5.55372624173 -4.65958668576 0)
(-5.84020643958 -4.30022322526 0)
(-6.1378893813 -3.97887903072 0)
(-6.44124517319 -3.68477694553 0)
(-6.74506092356 -3.410590921 0)
(-7.04465463459 -3.15146164314 0)
(-7.33600496956 -2.90422152314 0)
(-7.61577450942 -2.66682633134 0)
(-7.88126682059 -2.43795491614 0)
(-8.1303546793 -2.21673776733 0)
(-8.36140001499 -2.00258080774 0)
(-8.57317606972 -1.79505688598 0)
(-8.76479721823 -1.59384280336 0)
(-8.93565846306 -1.39868561888 0)
(-9.08538571786 -1.20938654506 0)
(-9.21379412031 -1.02579420377 0)
(-9.32085806718 -0.847804180606 0)
(-9.40667983122 -0.675356031523 0)
(-9.47148427777 -0.508444315314 0)
(-9.51556957791 -0.347093057495 0)
(-9.53938038721 -0.191431537844 0)
(-9.5432953009 -0.0415003741179 0)
(-9.52816030129 0.102189568199 0)
(-9.49415085026 0.240392622689 0)
(-9.44238668144 0.375651592617 0)
(-9.37353577592 0.508313716522 0)
(-9.28820093352 0.638425078141 0)
(-9.18708144629 0.765753645882 0)
(-9.07095135614 0.889875275501 0)
(-8.94063020169 1.01030601505 0)
(-8.79697141036 1.12664040973 0)
(-8.64086010178 1.23866385935 0)
(-8.47321593788 1.34641002126 0)
(-8.2949910894 1.45015699154 0)
(-8.10715152543 1.55038489283 0)
(-7.91064292579 1.64772287261 0)
(-7.70635233256 1.74289996714 0)
(-7.49507420221 1.83670366403 0)
(-7.27748323878 1.92994619427 0)
(-7.05411466239 2.02343613058 0)
(-6.82535320115 2.11795037886 0)
(-6.59143143283 2.21420262747 0)
(-6.35243764979 2.31280340755 0)
(-6.10833155211 2.41421772555 0)
(-5.85896658307 2.51872285626 0)
(-5.604120301 2.62637083661 0)
(-5.34352407139 2.73698996161 0)
(-5.07690900169 2.8501644474 0)
(-4.80403821471 2.96530787627 0)
(-4.52475769817 3.08169312079 0)
(-4.23902601264 3.19857064809 0)