/*--------------------------------*- C++ -*----------------------------------*\
| =========                 |                                                 |
| \\      /  F ield         | OpenFOAM: The Open Source CFD Toolbox           |
|  \\    /   O peration     | Version:  v1806                                 |
|   \\  /    A nd           | Web:      www.OpenFOAM.com                      |
|    \\/     M anipulation  |                                                 |
\*---------------------------------------------------------------------------*/
FoamFile
{
    version     2.0;
    format      ascii;
    class       volVectorField;
    location    "400";
    object      Ua;
}
// * * * * * * * * * * * * * * * * * * * * * * * * * * * * * * * * * * * * * //

dimensions      [0 1 -1 0 0 0 0];


internalField   nonuniform List<vector> 
6400
(
(-0.549725804723 -0.247277121285 0)
(-1.13204135373 0.227419102809 0)
(-1.94992728246 1.0984367034 0)
(-2.83255233677 1.27601875025 0)
(-3.69451633159 0.699752406552 0)
(-4.83447670531 -1.23826234656 0)
(-5.26320207205 -3.04099658649 0)
(-5.77285243771 -4.42444942372 0)
(-6.19057894014 -5.90960495752 0)
(-6.51756781202 -7.46775134837 0)
(-6.77720629239 -9.07449590903 0)
(-6.98831457182 -10.7163628595 0)
(-7.16171023616 -12.3841681746 0)
(-7.30401339487 -14.0701952508 0)
(-7.42033707986 -15.7679622329 0)
(-7.51505723229 -17.4723029377 0)
(-7.59185389704 -19.1792006754 0)
(-7.65373329883 -20.8855431158 0)
(-7.7031372804 -22.5889271798 0)
(-7.74206249675 -24.2875398083 0)
(-7.77214875926 -25.9800730601 0)
(-7.79474171666 -27.6656620102 0)
(-7.81094387325 -29.3438334189 0)
(-7.82165886003 -31.0144716638 0)
(-7.82762888878 -32.6777954409 0)
(-7.82946505228 -34.3343476756 0)
(-7.82767167005 -35.984993875 0)
(-7.82266622456 -37.6309307587 0)
(-7.81479606872 -39.2737044368 0)
(-7.80435283652 -40.9152376558 0)
(-7.79158582724 -42.5578721775 0)
(-7.77671772324 -44.2044202055 0)
(-7.75997406683 -45.8582722655 0)
(-7.74165896013 -47.5235522122 0)
(-7.72226055071 -49.2056544185 0)
(-7.70235542509 -50.9110429264 0)
(-7.68028067001 -52.6449968978 0)
(-7.64736724529 -54.3933231156 0)
(-7.59491388945 -56.1186941304 0)
(-7.52594437019 -57.7251141617 0)
(-7.44632712862 -59.1534580367 0)
(-7.36039946792 -60.3909211379 0)
(-7.27059144948 -61.4288405346 0)
(-7.17783982608 -62.2602448922 0)
(-7.08252484232 -62.8791730959 0)
(-6.98498162558 -63.2806779357 0)
(-6.88559817735 -63.460944501 0)
(-6.78478859469 -63.4173770508 0)
(-6.68298769543 -63.1486951699 0)
(-6.58067219231 -62.6550631174 0)
(-6.47838344858 -61.9382544824 0)
(-6.37674135127 -61.0018310819 0)
(-6.2764512518 -59.8513305939 0)
(-6.17830590153 -58.4944464929 0)
(-6.08318208959 -56.9411938606 0)
(-5.99202974853 -55.2040369005 0)
(-5.90585107625 -53.2979618415 0)
(-5.82566798906 -51.2404629542 0)
(-5.75247672465 -49.0514211209 0)
(-5.68719046575 -46.7528450031 0)
(-5.63057170027 -44.3684632879 0)
(-5.58315884111 -41.9231556037 0)
(-5.5451913912 -39.4422330266 0)
(-5.5165405304 -36.9505833362 0)
(-5.49664727243 -34.471717926 0)
(-5.48447884403 -32.0267652899 0)
(-5.47848952718 -29.6334587022 0)
(-5.47662853849 -27.3051959502 0)
(-5.47628180874 -25.0501443378 0)
(-5.47442815524 -22.8706200926 0)
(-5.46726863277 -20.7622686995 0)
(-5.45126661436 -18.7145196704 0)
(-5.42063599754 -16.7088343111 0)
(-5.3744882605 -14.7250205378 0)
(-5.29898437283 -12.7287946677 0)
(-5.21503831032 -10.7119328017 0)
(-5.04068254251 -8.57538881949 0)
(-4.93006796875 -6.41007734719 0)
(-4.01894874874 -3.39429496274 0)
(-3.32249315736 -0.356694076533 0)
(-0.679689416501 -0.997376913169 0)
(-0.966506444775 -0.993901764831 0)
(-2.28982901537 -1.4121984447 0)
(-3.19275297183 -2.87182015826 0)
(-4.05925002472 -2.34844931305 0)
(-4.89206458653 -1.31750295336 0)
(-5.66189679309 -0.264142772602 0)
(-6.3901082298 0.735390937465 0)
(-7.08541528381 1.71324671942 0)
(-7.73788306415 2.69559427374 0)
(-8.34244119426 3.69653054656 0)
(-8.89949545219 4.72182486167 0)
(-9.41061596415 5.77338638924 0)
(-9.87755644734 6.85144491995 0)
(-10.3025927389 7.95540075649 0)
(-10.6885215789 9.0842028807 0)
(-11.0383525872 10.2365718029 0)
(-11.3550470676 11.4111415871 0)
(-11.6414010792 12.6065466789 0)
(-11.9000095948 13.8214763867 0)
(-12.1332561666 15.054715539 0)
(-12.3433096612 16.3051786352 0)
(-12.532129642 17.5719418438 0)
(-12.701477949 18.8542722522 0)
(-12.8529341932 20.1516575637 0)
(-12.9879106177 21.4638357051 0)
(-13.1076662908 22.7908276575 0)
(-13.2133192774 24.1329726698 0)
(-13.3058585504 25.4909687636 0)
(-13.3861529517 26.8659160418 0)
(-13.454964816 28.2593729562 0)
(-13.5129446841 29.6734054329 0)
(-13.5606665955 31.1106822708 0)
(-13.5985003267 32.5744638721 0)
(-13.627087585 34.0687881285 0)
(-13.6475530062 35.5976671765 0)
(-13.6696746966 37.1646653663 0)
(-13.7064487342 38.7239109378 0)
(-13.7510271404 40.1960872489 0)
(-13.7876101893 41.5216027749 0)
(-13.806295997 42.6637087219 0)
(-13.8052511318 43.6192093711 0)
(-13.784463036 44.3842003723 0)
(-13.7434618471 44.9551840582 0)
(-13.6812859573 45.3296497015 0)
(-13.5967933084 45.506225703 0)
(-13.4887636943 45.4847712687 0)
(-13.3558839524 45.2665134394 0)
(-13.1967374446 44.8541906626 0)
(-13.0098252807 44.2521836505 0)
(-12.7936067618 43.46662413 0)
(-12.5465493495 42.5054927053 0)
(-12.2671884079 41.3786959046 0)
(-11.9542004945 40.0981188203 0)
(-11.6064926537 38.6776306319 0)
(-11.2233084481 37.133030155 0)
(-10.8043480195 35.4819048021 0)
(-10.34989791 33.7433908842 0)
(-9.86096131755 31.937816277 0)
(-9.33937837023 30.08622816 0)
(-8.78792084347 28.209807472 0)
(-8.2103477475 26.3291987778 0)
(-7.61140610493 24.4637825946 0)
(-6.99676943289 22.6309401181 0)
(-6.37290673809 20.8453492673 0)
(-5.74689362713 19.1183615027 0)
(-5.12615999697 17.4574988627 0)
(-4.51823677488 15.8661114012 0)
(-3.93040720359 14.3432507107 0)
(-3.36959783508 12.8837295253 0)
(-2.84167907568 11.4786352205 0)
(-2.35250015818 10.1157309351 0)
(-1.90437369966 8.78181782732 0)
(-1.50540677449 7.4618502968 0)
(-1.14318137489 6.153555568 0)
(-0.860805038788 4.84465100293 0)
(-0.537298564961 3.62612491376 0)
(-0.579896327378 2.437356387 0)
(0.516279896908 2.57863641571 0)
(-1.49696490839 3.22122467531 0)
(-1.92946393064 -2.2883663875 0)
(-2.49208535376 -3.18811238819 0)
(-3.13355016214 -2.4973956782 1.31309207451e-28)
(-3.21899912048 -1.89461107275 -7.79759488523e-29)
(-3.28217739671 -1.49795724686 -3.87320677993e-29)
(-3.46508749409 -1.34242268085 3.10946001402e-29)
(-3.77109192847 -1.36330567142 -7.6429292048e-31)
(-4.15480931132 -1.46098001434 6.74795164499e-31)
(-4.56422250268 -1.59690579366 0)
(-4.96181799339 -1.7635911455 0)
(-5.32808 -1.96230392194 0)
(-5.65578401569 -2.19641777245 0)
(-5.94346863417 -2.46930617358 0)
(-6.19219709484 -2.7834771571 0)
(-6.40438930975 -3.14038795407 0)
(-6.58318873216 -3.54061220288 0)
(-6.73196178133 -3.98407494761 0)
(-6.85397701071 -4.47023712203 0)
(-6.95226031815 -4.99823916003 0)
(-7.02955130558 -5.56701607252 0)
(-7.08829872735 -6.17539493776 0)
(-7.13067002649 -6.82217188946 0)
(-7.15856839344 -7.50617572335 0)
(-7.17365465071 -8.2263201622 0)
(-7.17737019678 -8.98165132005 0)
(-7.17095879503 -9.7713918094 0)
(-7.15548560903 -10.5949849004 0)
(-7.13185478371 -11.4521408806 0)
(-7.10082354629 -12.3428865279 0)
(-7.06301939303 -13.2676250441 -7.92149717062e-28)
(-7.01894443468 -14.2271954549 7.90961528923e-28)
(-6.96900987459 -15.2229732587 0)
(-6.91348221361 -16.2569002357 0)
(-6.85258844008 -17.3317791979 0)
(-6.78565621478 -18.4508080754 0)
(-6.71033234023 -19.6193320356 0)
(-6.61575366662 -20.829166011 0)
(-6.50738800933 -21.9582645167 0)
(-6.40513604066 -22.9355544392 0)
(-6.31591699223 -23.7631375626 0)
(-6.23985259455 -24.4362185252 0)
(-6.17523519092 -24.9496684828 0)
(-6.12150181162 -25.3007720217 0)
(-6.07894337423 -25.4889423362 0)
(-6.04802154858 -25.5152477614 0)
(-6.02916808329 -25.3823856787 0)
(-6.02277489082 -25.0947838307 0)
(-6.02915669099 -24.6586369941 0)
(-6.04847365891 -24.0818785377 0)
(-6.08064755775 -23.3741235832 0)
(-6.12528064872 -22.546597108 0)
(-6.18157445767 -21.6120410201 0)
(-6.24824557372 -20.5845896518 0)
(-6.32344237265 -19.4796017238 0)
(-6.4046683528 -18.3134364354 0)
(-6.48872135039 -17.1031620327 0)
(-6.57165850648 -15.8661892214 0)
(-6.64879948481 -14.6198295813 0)
(-6.71477975846 -13.3807899602 0)
(-6.76366460861 -12.1646260278 0)
(-6.78912939312 -10.9851901789 0)
(-6.78470479304 -9.85411670181 0)
(-6.74407622308 -8.78039049568 0)
(-6.66141819627 -7.7700404223 0)
(-6.53173269679 -6.82598874817 0)
(-6.35116602281 -5.94807810906 0)
(-6.11724875774 -5.13328013061 0)
(-5.8290928954 -4.37611073714 0)
(-5.48736744457 -3.66921216849 0)
(-5.09449053842 -3.0042333524 0)
(-4.65384487538 -2.37273653432 0)
(-4.17130332665 -1.76818637468 0)
(-3.64992068666 -1.18638344604 0)
(-3.10327656438 -0.632441590919 0)
(-2.51563362131 -0.110393453426 0)
(-1.95853844671 0.337818859081 0)
(-1.25208895779 0.765881486215 0)
(-1.07467647007 0.997291200185 0)
(0.995923404632 2.40534430371 0)
(-2.12896419935 3.39188082562 0)
(-2.00974041288 -4.32678519161 0)
(-3.64470690396 -1.71657447991 0)
(-2.68591042989 -1.25219917215 0)
(-2.19345798034 -1.71184878572 0)
(-2.46275272588 -1.97100462564 0)
(-2.93932474229 -2.04915479119 0)
(-3.45840255414 -2.02393593147 0)
(-3.98457859783 -1.91264930549 0)
(-4.48363084483 -1.73718126533 0)
(-4.93532118422 -1.52262954411 0)
(-5.33649050839 -1.2864286449 0)
(-5.69171349067 -1.03812371035 0)
(-6.00700756607 -0.782281468876 0)
(-6.28799502702 -0.52039371939 0)
(-6.53965996867 -0.251995714163 0)
(-6.76630926257 0.024509039894 0)
(-6.97154926823 0.311257182823 0)
(-7.15832937009 0.610558435985 0)
(-7.32904161308 0.924689947188 0)
(-7.48563215055 1.25578617366 0)
(-7.62969717992 1.60578749389 0)
(-7.76255766161 1.97642741929 0)
(-7.88531712534 2.36924597451 0)
(-7.99890678405 2.785619003 0)
(-8.10412082337 3.22679732938 0)
(-8.20164347116 3.69395227962 0)
(-8.29206950457 4.18822598008 0)
(-8.37592050688 4.71078705183 0)
(-8.453655683 5.26288912288 0)
(-8.52568617469 5.84594128967 0)
(-8.59236690679 6.46156819786 0)
(-8.65404168963 7.11172705056 0)
(-8.71091077451 7.79869877869 0)
(-8.7634509868 8.52548945877 0)
(-8.81161161058 9.29522773493 0)
(-8.85931658005 10.1138046551 0)
(-8.90530553273 10.9366495529 0)
(-8.93306611243 11.6518284494 0)
(-8.93852737807 12.25689876 0)
(-8.92575720115 12.7448942949 0)
(-8.8963562568 13.1104927769 0)
(-8.84903032493 13.3517887933 0)
(-8.78259557809 13.4694404223 0)
(-8.69678685826 13.4661392593 0)
(-8.59177359966 13.3465859466 0)
(-8.46784672298 13.1174470513 1.90237503823e-27)
(-8.32544335262 12.7871782881 -1.91589442102e-27)
(-8.16524976664 12.3657951189 0)
(-7.98826663276 11.8646302235 0)
(-7.79584611204 11.2960747543 0)
(-7.58972185044 10.6732955222 0)
(-7.37203076634 10.0099308636 0)
(-7.14531636321 9.31976779853 0)
(-6.91250297057 8.61640404675 0)
(-6.67683267571 7.91289555932 0)
(-6.44175764159 7.2213961833 0)
(-6.21078307389 6.55279876075 0)
(-5.98726047748 5.91639744625 1.14761071453e-27)
(-5.77413771572 5.31959442619 -1.17455210699e-27)
(-5.57368129199 4.76768208554 0)
(-5.38719496171 4.26372814139 0)
(-5.2147670947 3.80858918546 0)
(-5.05508169292 3.40106354926 0)
(-4.90532882335 3.03818348812 0)
(-4.76123583835 2.71562812488 0)
(-4.61724230189 2.42823011284 0)
(-4.46678403722 2.17054383152 0)
(-4.30274505017 1.93742960324 0)
(-4.11782643275 1.72468499776 0)
(-3.90539682212 1.52954588576 0)
(-3.65915329694 1.35148390808 0)
(-3.37608387811 1.19212829746 0)
(-3.0500879858 1.0574937163 0)
(-2.6916296359 0.952822051889 0)
(-2.27229102929 0.897358935068 0)
(-1.88907491578 0.876894113252 0)
(-1.27806166135 0.988754394058 0)
(-1.38765649353 1.03255055851 0)
(1.21438361652 2.4853622848 0)
(-2.93552617228 3.22237444734 0)
(5.62954443978 -9.11800278835 0)
(-2.25767240235 -1.66661781289 0)
(-1.22529639372 -1.7411454601 0)
(-1.37442259283 -2.42150157071 0)
(-2.27663326301 -2.62694150663 0)
(-3.01961438019 -2.62044132292 0)
(-3.58950509878 -2.51356021367 0)
(-4.07208827376 -2.34024634915 0)
(-4.48206185419 -2.13575572302 0)
(-4.8247013311 -1.92911494397 0)
(-5.11324426689 -1.73695340893 0)
(-5.36084323486 -1.56715498392 0)
(-5.57678490307 -1.4229998905 0)
(-5.76725355633 -1.3053724398 0)
(-5.93651564709 -1.21391436535 0)
(-6.08755466891 -1.14774352771 0)
(-6.22243582785 -1.10588770312 0)
(-6.34259032935 -1.08749998185 0)
(-6.44904049962 -1.09194066045 0)
(-6.54255961944 -1.11879267756 0)
(-6.62377507293 -1.16784813223 0)
(-6.69323086124 -1.23908281114 0)
(-6.75142338923 -1.33262836891 0)
(-6.79882039962 -1.44874781177 0)
(-6.83586914514 -1.5878178551 0)
(-6.86299758459 -1.75031972432 0)
(-6.88061164017 -1.93683907536 0)
(-6.88908871768 -2.14807564107 0)
(-6.88877355922 -2.38486303071 0)
(-6.87996286812 -2.64819952425 0)
(-6.86292049058 -2.93929212679 -1.1706984816e-27)
(-6.83780474009 -3.25960699325 1.17369125704e-27)
(-6.80484741898 -3.61095386855 0)
(-6.7637858521 -3.99550352776 0)
(-6.7152086216 -4.41614103071 0)
(-6.6558395417 -4.87608364123 0)
(-6.59249813094 -5.30645815695 0)
(-6.53455481369 -5.6666672067 0)
(-6.48250083607 -5.9465709636 0)
(-6.43727972689 -6.1408527722 0)
(-6.39956163439 -6.24861280956 0)
(-6.36864914751 -6.27074853333 0)
(-6.34340804487 -6.20962774939 0)
(-6.32292719822 -6.06956190165 0)
(-6.30636546507 -5.85683942313 0)
(-6.29267689807 -5.57940829146 0)
(-6.28053402493 -5.24649583061 0)
(-6.26835564497 -4.86823591998 0)
(-6.25433342291 -4.45528723874 0)
(-6.23644989457 -4.01844275745 0)
(-6.21251318509 -3.56825016652 0)
(-6.18022218992 -3.11466063489 0)
(-6.13726263595 -2.66671722104 0)
(-6.08143062999 -2.23229079705 0)
(-6.01077818849 -1.81787088816 0)
(-5.92377150398 -1.42842017727 0)
(-5.81944698558 -1.06730152082 0)
(-5.69754423339 -0.736286997198 0)
(-5.55859105119 -0.435654923984 0)
(-5.40391461906 -0.164376243429 0)
(-5.23555738208 0.0796179220444 0)
(-5.05608629816 0.299105151857 0)
(-4.86829910349 0.497205346017 0)
(-4.67485201619 0.677012499228 0)
(-4.47784449949 0.841261784589 0)
(-4.27842904551 0.992057422848 0)
(-4.07646572013 1.13069081083 0)
(-3.87038073528 1.25752734226 0)
(-3.65698782214 1.372022711 0)
(-3.43208280193 1.47268990774 0)
(-3.18969825508 1.55748536587 0)
(-2.9259942444 1.62336740081 0)
(-2.63119625821 1.66894425369 0)
(-2.31662309819 1.68946399173 0)
(-1.9419581538 1.69620384261 0)
(-1.63605522086 1.66595340301 0)
(-1.04399960351 1.70988900379 0)
(-1.42833855027 1.59980734159 0)
(1.69468369771 2.97046918969 0)
(-3.74537113577 3.28729036971 0)
(10.4159921819 -8.4002306641 0)
(-3.14868574164 -1.2471233635 0)
(-0.911159035905 -2.62944906599 0)
(-1.48483086861 -3.33331754935 0)
(-2.64129028517 -3.37619441417 0)
(-3.33669456302 -3.23581210868 0)
(-3.78445262882 -3.00511634685 0)
(-4.13973522523 -2.7238711655 0)
(-4.42953067504 -2.43293867475 0)
(-4.66722563646 -2.15620220803 0)
(-4.87056167271 -1.90261155584 0)
(-5.05275654258 -1.67386471596 0)
(-5.22102789448 -1.46856927638 0)
(-5.37901833687 -1.28396090067 0)
(-5.52856144017 -1.11678314445 0)
(-5.67047537162 -0.963787670467 0)
(-5.80498482432 -0.821965703312 0)
(-5.93201524725 -0.68861315215 0)
(-6.05139052261 -0.561317004836 0)
(-6.16294673571 -0.437914111498 0)
(-6.26658761078 -0.316444459442 0)
(-6.36230493963 -0.195107148181 0)
(-6.45017944802 -0.0722215914768 0)
(-6.53037131014 0.0538054901141 0)
(-6.60310589338 0.184508014602 0)
(-6.6686580177 0.321384939331 0)
(-6.72733636118 0.465922867862 0)
(-6.77946977918 0.61961873175 0)
(-6.82539391866 0.784004884261 0)
(-6.86544479646 0.96067567986 0)
(-6.89994142601 1.15132766929 0)
(-6.92920773717 1.35778252656 0)
(-6.95349841329 1.58209796103 0)
(-6.97321541278 1.82645934464 0)
(-6.98841133646 2.09381511942 0)
(-7.00000905868 2.38409032336 0)
(-7.00185473359 2.64396521232 0)
(-6.99088096013 2.86119419385 0)
(-6.96621317566 3.03066620305 0)
(-6.92817397213 3.14934125854 0)
(-6.87756732857 3.21568924342 0)
(-6.81496444284 3.23042603474 0)
(-6.7408040046 3.19668161607 0)
(-6.65577937305 3.11946542481 0)
(-6.56091914957 3.00511496463 0)
(-6.45746385113 2.86090270859 0)
(-6.34677003053 2.69466634538 0)
(-6.23027010175 2.51440102858 0)
(-6.10942921054 2.32785086674 0)
(-5.98567428801 2.14214599485 0)
(-5.86030553185 1.9635086586 0)
(-5.73440419549 1.79703866987 0)
(-5.60874533283 1.64658380211 0)
(-5.48372328361 1.5146983993 0)
(-5.35930042691 1.4026884446 0)
(-5.23499156834 1.31073781575 0)
(-5.10989529952 1.2381046473 0)
(-4.98277938703 1.18337270155 0)
(-4.85221931209 1.14473577613 0)
(-4.7167781602 1.12028934524 0)
(-4.57520354949 1.10829846503 0)
(-4.42660627304 1.10741387153 0)
(-4.2705792014 1.11680875213 0)
(-4.10721937412 1.13622452304 0)
(-3.93702257133 1.16591775918 0)
(-3.76066278781 1.20652051021 0)
(-3.57863123591 1.25883701974 0)
(-3.39091772173 1.32356250002 0)
(-3.19643897964 1.40102472557 0)
(-2.9932863625 1.49072958674 0)
(-2.77716417549 1.59122915127 0)
(-2.54570620441 1.698820511 0)
(-2.28752313035 1.80945909777 0)
(-2.01651170808 1.91173188613 0)
(-1.67808576218 2.00754931332 0)
(-1.4344446853 2.05455863934 0)
(-0.823475026437 2.15839430408 0)
(-1.47148955808 2.03181621632 0)
(2.28544662395 3.46549412384 0)
(-4.66355431694 3.4356939684 0)
(15.220850555 -8.4008451957 0)
(-5.28780293219 -1.78232074925 0)
(-1.01996479656 -3.91283758658 0)
(-1.88184030681 -4.23334065778 0)
(-3.00956646776 -3.98981481888 0)
(-3.49683703655 -3.67163313671 0)
(-3.77258676313 -3.31383676964 0)
(-3.99610214966 -2.95175307988 0)
(-4.18168321474 -2.61779775401 0)
(-4.34071422009 -2.32259351285 0)
(-4.48791023188 -2.06523240063 4.70620345918e-28)
(-4.63169901147 -1.84167825479 -4.64875210579e-28)
(-4.77488014645 -1.64735858429 0)
(-4.91761409843 -1.47786415766 0)
(-5.05900367793 -1.32932445602 0)
(-5.19770476944 -1.19857207705 0)
(-5.33223815027 -1.08312658715 0)
(-5.46119344937 -0.981096689854 0)
(-5.58334561921 -0.891068632792 0)
(-5.69770210558 -0.812006678751 0)
(-5.8035073433 -0.743171475495 0)
(-5.90022517007 -0.684055834799 0)
(-5.9875108774 -0.634335726378 0)
(-6.06517939636 -0.593834110194 0)
(-6.13317330105 -0.56249516083 0)
(-6.19153249951 -0.540366912842 0)
(-6.24036672012 -0.527590932274 0)
(-6.27983022697 -0.524397782548 0)
(-6.31010085859 -0.531109476298 0)
(-6.33135827198 -0.548144891598 0)
(-6.3437736884 -0.576041143481 0)
(-6.34748080727 -0.615456107559 1.32675389297e-27)
(-6.34259477976 -0.667251030352 -1.33553180186e-27)
(-6.32911891828 -0.732378783847 0)
(-6.30713291251 -0.812341118485 0)
(-6.27702667917 -0.901906584609 0)
(-6.24382900082 -0.971579710055 0)
(-6.20867253521 -1.0169842757 0)
(-6.1717411375 -1.03456798867 0)
(-6.13319024036 -1.02240773601 0)
(-6.0931324177 -0.98060369715 0)
(-6.05130345158 -0.910976796627 0)
(-6.00702080001 -0.816572763529 0)
(-5.95941409502 -0.701368833217 0)
(-5.90759331685 -0.570029475292 0)
(-5.850675916 -0.427564879944 0)
(-5.7877879914 -0.27894464061 0)
(-5.7181044793 -0.128755793717 0)
(-5.64091133604 0.0190579308124 0)
(-5.5556627138 0.161370132941 0)
(-5.46202475847 0.295957011377 0)
(-5.35990501338 0.421494073556 0)
(-5.24946332115 0.537472480972 0)
(-5.13109797895 0.644051561268 0)
(-5.00540322232 0.741870128963 0)
(-4.87309899744 0.831841988791 0)
(-4.73494027539 0.914962237978 0)
(-4.5916193072 0.992149631565 0)
(-4.44367971294 1.06414615459 0)
(-4.29146262061 1.13148875358 0)
(-4.13510214535 1.19455538717 0)
(-3.97457579977 1.25368020655 0)
(-3.80980093182 1.3093102756 0)
(-3.64074955602 1.36218218304 0)
(-3.46753584002 1.41346830097 0)
(-3.29044855743 1.46486839677 0)
(-3.10983212951 1.51862164775 0)
(-2.92597380104 1.57736426139 0)
(-2.73855798695 1.64395513825 0)
(-2.54698317019 1.72096604056 0)
(-2.34825233718 1.81041348419 0)
(-2.14197588665 1.91205573304 0)
(-1.91612692333 2.02504837771 0)
(-1.6892565408 2.13932645034 0)
(-1.39204210204 2.25761595699 0)
(-1.22473347719 2.32953632719 0)
(-0.599519112795 2.46633822229 0)
(-1.56270064744 2.32166852432 0)
(2.92825689163 3.86895778331 0)
(-5.68962533938 3.54509698027 0)
(20.228289598 -8.09738684187 0)
(-7.9983047624 -2.61969250958 0)
(-0.881373417329 -5.23002993291 0)
(-2.13874216884 -4.97571915525 0)
(-3.12005662969 -4.45537491531 0)
(-3.39581819025 -3.98532150642 0)
(-3.55125862733 -3.53245746107 0)
(-3.69874007675 -3.12152448695 0)
(-3.83294925717 -2.76771720413 0)
(-3.96150914399 -2.466598456 0)
(-4.09425733351 -2.20873667367 0)
(-4.23458452738 -1.985617002 0)
(-4.3817263593 -1.79019812113 0)
(-4.53348574252 -1.61673209349 0)
(-4.68730278475 -1.46070048758 0)
(-4.84062394252 -1.31867296494 0)
(-4.991098146 -1.18808577604 0)
(-5.13669420442 -1.06702048988 0)
(-5.27574965514 -0.954020004704 0)
(-5.40696990205 -0.847946152192 0)
(-5.52939999655 -0.747872865754 0)
(-5.64238416389 -0.653007612655 0)
(-5.74552110035 -0.562634844026 0)
(-5.83861935919 -0.476076047 0)
(-5.92165542079 -0.392661785988 0)
(-5.9947355257 -0.311711912816 0)
(-6.05806171452 -0.232521229185 0)
(-6.11190136475 -0.15434869213 0)
(-6.15656176029 -0.0764084298161 0)
(-6.19236527453 0.00213746781182 0)
(-6.21963855182 0.0821888298172 0)
(-6.23868069077 0.164713558961 0)
(-6.24981563781 0.250775456967 0)
(-6.25324434266 0.341535422781 0)
(-6.24947347461 0.438350724968 0)
(-6.23779177293 0.53611751172 0)
(-6.21658274072 0.622803719774 0)
(-6.18540342977 0.696283173348 0)
(-6.14432177963 0.755439807652 0)
(-6.09364760192 0.800200730044 0)
(-6.03391815198 0.831308647345 0)
(-5.96577492582 0.850239625377 0)
(-5.88986981254 0.859188359847 0)
(-5.80689360462 0.8608955755 0)
(-5.71760980418 0.858339300675 1.2424225483e-27)
(-5.62281111086 0.854430649144 -1.24542405596e-27)
(-5.52323619262 0.851779793922 0)
(-5.41950101348 0.852531491701 0)
(-5.31205671353 0.858266794603 0)
(-5.20116637554 0.869975510382 0)
(-5.08689933746 0.888096369123 0)
(-4.96914759857 0.912609846558 0)
(-4.84766586674 0.943161486329 0)
(-4.72213061375 0.979193068986 0)
(-4.5922085294 1.0200609379 0)
(-4.45762196599 1.06512581173 0)
(-4.31819842393 1.11380409412 0)
(-4.173893048 1.1655803799 0)
(-4.02477989112 1.21998708015 0)
(-3.87101475855 1.27657176194 0)
(-3.71278588462 1.33486661103 0)
(-3.5502690466 1.39439816168 0)
(-3.38361378812 1.454731533 0)
(-3.2129644132 1.51559044911 0)
(-3.03851218947 1.57699919014 0)
(-2.860566278 1.6394579308 0)
(-2.679531752 1.70410493506 0)
(-2.49596185561 1.77270834675 0)
(-2.31009825115 1.84767072469 0)
(-2.12240803418 1.93156544937 0)
(-1.9311180997 2.026928352 0)
(-1.73829600365 2.13422765325 0)
(-1.53217198688 2.25349754842 0)
(-1.33851196736 2.37466082365 0)
(-1.07412701443 2.50128119488 0)
(-0.985436196237 2.57717835382 0)
(-0.341971637154 2.72305499537 0)
(-1.68248463942 2.53349528383 0)
(3.64507872223 4.197519143 0)
(-6.79906112466 3.60427084525 0)
(25.7655972954 -7.92109743916 0)
(-11.2447291111 -3.84666819171 0)
(-0.405592120209 -6.49312003269 0)
(-2.28659379686 -5.51878490259 0)
(-3.03737419281 -4.77464370631 0)
(-3.14560877789 -4.18855884881 0)
(-3.23965674246 -3.67419030066 0)
(-3.35530159739 -3.24279617185 0)
(-3.4731951017 -2.88923723118 0)
(-3.59874869968 -2.59640771615 0)
(-3.73730838302 -2.34909616012 0)
(-3.88845981169 -2.13596500707 0)
(-4.04920960821 -1.94856597258 0)
(-4.216044747 -1.78061318171 0)
(-4.38551359294 -1.62760032844 0)
(-4.55443612462 -1.48641128295 0)
(-4.72002584557 -1.35494699227 0)
(-4.87994861412 -1.2318222036 0)
(-5.03232909785 -1.11613504694 0)
(-5.17572221674 -1.00729971515 0)
(-5.30906737987 -0.90492846741 0)
(-5.43163636071 -0.808750505695 0)
(-5.54297995753 -0.718558389401 0)
(-5.64287676215 -0.634174623724 0)
(-5.7312861163 -0.555432018591 0)
(-5.80830572439 -0.482163197907 0)
(-5.87413364463 -0.4141962494 0)
(-5.92903363194 -0.351354986943 0)
(-5.97330463759 -0.293463276303 0)
(-6.00725233605 -0.240353058656 0)
(-6.03116905322 -0.191877267778 0)
(-6.04531110896 -0.147925072113 0)
(-6.04990131647 -0.108446786781 1.53018267718e-27)
(-6.04511470664 -0.0734782725627 -1.54732500994e-27)
(-6.03116885107 -0.0431842644921 0)
(-6.00855446645 -0.0131578765667 0)
(-5.97832591069 0.0217109617398 0)
(-5.9407059909 0.0628602471827 0)
(-5.89574029321 0.111023147845 0)
(-5.8434157815 0.166204554906 0)
(-5.78370841073 0.227712736327 0)
(-5.71657897542 0.294291391113 0)
(-5.64196413799 0.36437251119 0)
(-5.5598211467 0.436330976941 0)
(-5.47019528401 0.508670430026 0)
(-5.37325464774 0.580155976308 0)
(-5.26928732986 0.649908184252 0)
(-5.158684143 0.717445140256 0)
(-5.04191695961 0.782662407076 0)
(-4.91950876314 0.845760603141 0)
(-4.79199372451 0.907142463255 0)
(-4.65987310502 0.967302164201 0)
(-4.52357610936 1.02672637741 0)
(-4.38343361576 1.08582157927 0)
(-4.23967017396 1.1448757624 0)
(-4.09241558472 1.20405555913 0)
(-3.94173358016 1.26343064915 0)
(-3.78765840508 1.32301571894 0)
(-3.63023028274 1.38280819685 0)
(-3.46951377877 1.44282466369 0)
(-3.30560161528 1.5031017159 0)
(-3.13859242805 1.56371908234 0)
(-2.96857703098 1.62478018441 0)
(-2.79562540637 1.68648777463 0)
(-2.61981469334 1.74918979073 0)
(-2.44129558751 1.81352682443 0)
(-2.26029399868 1.88064324697 0)
(-2.07726732709 1.95221257867 0)
(-1.89254576197 2.03057802228 0)
(-1.70715147537 2.11826143853 0)
(-1.51997133932 2.21791270606 0)
(-1.33526018199 2.33002731542 0)
(-1.14146826338 2.45439902162 0)
(-0.973035871896 2.57994531592 0)
(-0.733101594808 2.71011524069 0)
(-0.721233965553 2.78224828779 0)
(-0.0471560322714 2.92627512017 0)
(-1.8271500438 2.67906190788 0)
(4.47049859055 4.46664571854 0)
(-7.9927294823 3.62284854758 0)
(31.7907793791 -7.78808235333 0)
(-14.9935512096 -5.27488260523 0)
(0.504134241233 -7.53265046033 0)
(-2.36097922069 -5.83861489416 0)
(-2.81387347994 -4.98178035144 0)
(-2.82742395984 -4.32543257802 0)
(-2.90893297109 -3.78405143075 0)
(-3.02107676021 -3.35497415987 0)
(-3.14299502566 -3.01443438649 0)
(-3.27972149144 -2.73681747339 0)
(-3.43321525181 -2.50353649841 0)
(-3.60073515431 -2.30151712289 0)
(-3.7781611531 -2.12151816984 0)
(-3.96138432073 -1.95707210299 0)
(-4.14656408915 -1.80387422418 0)
(-4.33028129882 -1.6591869625 0)
(-4.50961448198 -1.52135294216 0)
(-4.68216164858 -1.38943287309 0)
(-4.84602428372 -1.26293789149 0)
(-4.99976421049 -1.14164150293 0)
(-5.14234964932 -1.02545100808 0)
(-5.27309810332 -0.914321471061 0)
(-5.39161914066 -0.80820128772 0)
(-5.49776057198 -0.70700025999 0)
(-5.59156028674 -0.610571851473 0)
(-5.67320328924 -0.518703751408 0)
(-5.74298261016 -0.431113361455 0)
(-5.80126214003 -0.347446954935 0)
(-5.84844302041 -0.267281858206 0)
(-5.8849287491 -0.190132246278 0)
(-5.91110607934 -0.115458793425 0)
(-5.92730056374 -0.0426776873025 0)
(-5.93382495339 0.0288103652043 0)
(-5.93080106389 0.0996484287023 0)
(-5.91860310993 0.170323285074 0)
(-5.89656076615 0.23897714813 0)
(-5.86451088667 0.304395696873 0)
(-5.82234391016 0.366465292705 0)
(-5.77010020393 0.425310132175 0)
(-5.70794741667 0.481293571435 0)
(-5.6361789985 0.534959637632 0)
(-5.55519416876 0.586945405369 0)
(-5.46546117766 0.637912923766 0)
(-5.36749382828 0.688491940084 0)
(-5.26184347855 0.739218462724 0)
(-5.14908509853 0.790488511033 0)
(-5.02979153825 0.842549937291 0)
(-4.90450932647 0.895530182009 0)
(-4.77374642192 0.949481330216 0)
(-4.63797045808 1.00442485446 0)
(-4.49761107982 1.06038437661 0)
(-4.35306191845 1.11739989053 0)
(-4.20468052162 1.17552129771 0)
(-4.05278597318 1.23478555925 0)
(-3.89765550019 1.2951860085 0)
(-3.7395216348 1.35664803766 0)
(-3.57857458102 1.41901706936 0)
(-3.41496792962 1.48207717584 0)
(-3.24883490843 1.54557251996 0)
(-3.0802950477 1.60927680251 0)
(-2.90947089701 1.67300141642 0)
(-2.73647027817 1.73669666551 0)
(-2.56139151609 1.800384255 0)
(-2.38429134962 1.86429804219 0)
(-2.20519875216 1.92882565032 0)
(-2.02417514359 1.99465387001 0)
(-1.84136258669 2.06294574194 0)
(-1.65705306035 2.13532397418 0)
(-1.47151555553 2.21415839384 0)
(-1.28607162309 2.30175659431 0)
(-1.09992430132 2.40124388012 0)
(-0.91950853939 2.51254099316 0)
(-0.73353449535 2.63433149808 0)
(-0.586482736049 2.75413920465 0)
(-0.366437278475 2.87499703769 0)
(-0.431779038616 2.93296633238 0)
(0.279286889079 3.05535180861 0)
(-2.00785195137 2.75818637749 0)
(5.45492653651 4.68180996254 0)
(-9.27794397234 3.58466624172 0)
(38.2268941186 -7.74945513507 0)
(-19.1999566667 -6.83539946469 0)
(1.87940519098 -8.30981988005 0)
(-2.45344738755 -5.99693386623 0)
(-2.51627943446 -5.13501394615 0)
(-2.51106767246 -4.43339035049 0)
(-2.60370883225 -3.88673532801 0)
(-2.72284373535 -3.47176298341 0)
(-2.85591113545 -3.14978922268 0)
(-3.0074045335 -2.89018193716 0)
(-3.17673463013 -2.67228561296 0)
(-3.35981371714 -2.48185680792 0)
(-3.55195910334 -2.30929412768 0)
(-3.74879574832 -2.14822821461 0)
(-3.94631413036 -1.99475772107 0)
(-4.14103569584 -1.84666382231 0)
(-4.33003761492 -1.70284053115 0)
(-4.51094899266 -1.56289411685 0)
(-4.68192410376 -1.42684628608 0)
(-4.84158923061 -1.29493394891 0)
(-4.98898416959 -1.16747541314 0)
(-5.12350192737 -1.04478333049 0)
(-5.24482794936 -0.927113732424 0)
(-5.35288508044 -0.814640713803 0)
(-5.44778709414 -0.707445326582 0)
(-5.52979825854 -0.605511456681 0)
(-5.59929491482 -0.508725150649 0)
(-5.65672632932 -0.416877778194 0)
(-5.7025750087 -0.329672015648 0)
(-5.73731548513 -0.246736998614 0)
(-5.761383863 -0.167640576887 0)
(-5.77512920947 -0.0919298345013 0)
(-5.77884696192 -0.0191238227035 0)
(-5.77261325317 0.0511403140451 0)
(-5.75681840928 0.119352710536 0)
(-5.7309038116 0.187444753709 0)
(-5.6950966852 0.256218388463 0)
(-5.64921478717 0.32607752357 0)
(-5.59307815542 0.397105456136 0)
(-5.52658179584 0.469080813296 0)
(-5.44973031129 0.541554265278 0)
(-5.36266070103 0.613948151589 0)
(-5.26565166727 0.685673192383 0)
(-5.15912527269 0.756236176687 0)
(-5.04364372329 0.825306796926 0)
(-4.91989211621 0.892737569442 0)
(-4.78864151998 0.958552206118 0)
(-4.6507000777 1.02291721534 0)
(-4.50686524716 1.08610393972 0)
(-4.35788569781 1.14844651498 0)
(-4.20443576646 1.21030179964 0)
(-4.04710238291 1.27201597233 0)
(-3.88638355442 1.33389813607 0)
(-3.72269525257 1.39619993877 0)
(-3.55638369438 1.4590966807 0)
(-3.38773604445 1.52267852153 0)
(-3.21699194268 1.58693486286 0)
(-3.04434361581 1.65178247757 0)