/*--------------------------------*- C++ -*----------------------------------*\
| =========                 |                                                 |
| \\      /  F ield         | OpenFOAM: The Open Source CFD Toolbox           |
|  \\    /   O peration     | Version:  v1806                                 |
|   \\  /    A nd           | Web:      www.OpenFOAM.com                      |
|    \\/     M anipulation  |                                                 |
\*---------------------------------------------------------------------------*/
FoamFile
{
    version     2.0;
    format      ascii;
    class       volScalarField;
    location    "700";
    object      p;
}
// * * * * * * * * * * * * * * * * * * * * * * * * * * * * * * * * * * * * * //

dimensions      [0 2 -2 0 0 0 0];


internalField   nonuniform List<scalar> 
6400
(
0.185069763748
0.184668147105
0.184258760825
0.184041796769
0.184163363586
0.184037424418
0.183255055616
0.181776258146
0.179736008401
0.177193720229
0.174235692459
0.170956879527
0.16745291935
0.163813877105
0.160120375402
0.156441665478
0.152835162348
0.149346969274
0.146012988382
0.142860308216
0.139908652441
0.137171753758
0.134658578607
0.132374371556
0.130321516248
0.128500226064
0.126909085758
0.125545468606
0.124405854808
0.123486075109
0.122781494531
0.122287141077
0.121997811704
0.121908263909
0.122013604682
0.122309758127
0.122793276402
0.12345861573
0.124297663284
0.125303580098
0.12647060844
0.127792384811
0.129262473528
0.130874504132
0.132622233816
0.134499568776
0.136500559866
0.138619376043
0.140850255402
0.143187432918
0.145625044881
0.148157011793
0.150776903868
0.153477796053
0.156252122226
0.159091540734
0.16198682508
0.164927794186
0.167903295673
0.170901253149
0.173908784243
0.176912390376
0.179898211948
0.182852334315
0.185761121146
0.188611543311
0.191391460477
0.194089798069
0.196696554554
0.199202575643
0.201599002544
0.203876174494
0.206021576218
0.208016827856
0.209835349686
0.211441610723
0.21278227629
0.213756570283
0.214228628779
0.214247421429
0.184866970606
0.184443716326
0.184203753395
0.184009405351
0.183850734458
0.183836842462
0.18311097473
0.181639382463
0.179566273754
0.176978632386
0.173974937312
0.170655619149
0.167119027284
0.163456186497
0.159747550877
0.156061510822
0.152454257845
0.148970549093
0.145644979439
0.142503465278
0.139564739689
0.136841737991
0.134342812263
0.132072753558
0.130033625696
0.12822542796
0.126646610325
0.125294466172
0.124165428044
0.123255291525
0.122559383856
0.122072662581
0.12178971438
0.121704781729
0.121812286479
0.12210810715
0.122590408089
0.123255657564
0.124097113736
0.12510711193
0.126277830015
0.127602357695
0.129074097524
0.130686653142
0.132433800846
0.134309482747
0.136307795547
0.138422964295
0.140649295937
0.142981109463
0.145412641738
0.14793792996
0.150550674659
0.153244089735
0.156010749391
0.158842444103
0.161730060081
0.164663497063
0.167631638745
0.170622387343
0.173622770048
0.176619118897
0.179597318735
0.182543109411
0.185442419367
0.188281699659
0.19104821943
0.193730269421
0.196317210431
0.198799316778
0.20116732265
0.203411504848
0.205520071782
0.207476805374
0.209258609071
0.210833457157
0.212155308727
0.213150171023
0.21371328137
0.213815384582
0.185303334499
0.184735755719
0.184308700322
0.184076141596
0.183696573225
0.183191487652
0.182170434949
0.180539291754
0.178345021688
0.175667798997
0.172605880527
0.169258693487
0.165721546075
0.162081112528
0.158412964637
0.154780654462
0.151235957394
0.14781984784
0.14456385355
0.14149153101
0.138619895687
0.135960713766
0.133521613833
0.13130701014
0.129318848436
0.127557194672
0.126020689977
0.124706895568
0.123612552059
0.122733779726
0.122066231039
0.121605142531
0.121345177943
0.121280370718
0.121405652897
0.121720152255
0.122221405538
0.122901926628
0.123754535615
0.124772815067
0.1259499997
0.127279435592
0.128754605127
0.130369144123
0.132116853848
0.133991708688
0.135987853285
0.138099583296
0.14032130481
0.142647468808
0.145072478664
0.147590570975
0.150195672819
0.152881241827
0.155640098809
0.15846426586
0.161344825214
0.164271815292
0.167234179636
0.170219781786
0.173215495333
0.176207372269
0.179180884977
0.18212122992
0.18501366961
0.187843881946
0.190598281795
0.193264271227
0.195830336842
0.198285978952
0.200621377976
0.202826655221
0.2048906798
0.206799322636
0.208532978152
0.210063656562
0.211352878425
0.212346256389
0.21295207809
0.213103718038
0.18614606588
0.185504318894
0.184830133021
0.184173157193
0.183361095677
0.182311784658
0.180860567505
0.178939142432
0.176554351167
0.173762784656
0.170646135352
0.1672922905
0.163786532732
0.160206299894
0.15661877948
0.153080219246
0.149636326847
0.146323277802
0.143168994944
0.140194479257
0.137415062891
0.13484151944
0.13248100814
0.130337853122
0.128414171711
0.126710370777
0.125225530858
0.123957698582
0.122904111928
0.122061381499
0.121425615214
0.120992390444
0.120756520519
0.120712255675
0.120855737174
0.121188575528
0.121707113142
0.122401928479
0.123266694374
0.124294798882
0.125479603111
0.126814537024
0.128293136341
0.129909072736
0.131656180389
0.133528476447
0.135520170096
0.137625654388
0.139839475292
0.142156273223
0.144570693873
0.147077267358
0.14967025789
0.152343489799
0.155090159879
0.157902649745
0.160772355077
0.163689550433
0.166643308042
0.169621485428
0.172610793813
0.175596953348
0.178564930412
0.181499249679
0.184384355847
0.187204994666
0.189946571864
0.192595492721
0.195139314599
0.197566784979
0.19986768664
0.202032274292
0.204050401291
0.205910269909
0.207596232155
0.209085631434
0.21034796359
0.211343616263
0.21197978509
0.212183388229
0.187037863952
0.18618932928
0.185165597158
0.184012104827
0.182685653526
0.181125228697
0.17923764493
0.17698465978
0.174373539575
0.171448153867
0.168273183705
0.164920614814
0.161461371031
0.157960304171
0.154473892896
0.151049599805
0.147726211373
0.144534683117
0.141499186962
0.13863818128
0.135965407625
0.133490770605
0.131221087583
0.129160711475
0.127312037708
0.125675908597
0.124251928248
0.123038704746
0.122034046472
0.121235126585
0.120638552015
0.120240197744
0.120035026111
0.120018129772
0.120187788269
0.120544832265
0.121084087643
0.121796397692
0.122675780186
0.123715823506
0.124910043553
0.126251955659
0.127735136805
0.129353276783
0.131100223106
0.132970018172
0.134956924223
0.137055430198
0.139260234068
0.141566194617
0.143968247831
0.146461285319
0.149039995527
0.151698672971
0.154431005445
0.157229854135
0.160087045438
0.162993196097
0.165937594481
0.168908154572
0.171891456716
0.174872889409
0.17783687991
0.180767220588
0.183647453707
0.186461305762
0.189193054333
0.191828024173
0.194352764214
0.196755172991
0.199024585516
0.201151335864
0.203126071924
0.204938903375
0.206577710335
0.208024872792
0.209255738593
0.210245683761
0.210894994623
0.211148225574
0.187538623772
0.186302419518
0.184941706723
0.183352503161
0.181562149719
0.179549876577
0.177274218017
0.174721381493
0.171904981986
0.168862344499
0.165644767573
0.162308992783
0.158911140562
0.155502919865
0.152129790042
0.148830392956
0.14563674419
0.142574812897
0.139665260173
0.136924204444
0.134363945391
0.131993614623
0.129819741315
0.127846731818
0.126077267661
0.124512627993
0.123152942958
0.121997391465
0.121044371936
0.120291651831
0.119736373365
0.119374742364
0.119201990818
0.11921461024
0.119413971201
0.119797588016
0.120358185376
0.121089254156
0.121984517134
0.123037623526
0.124242158209
0.125591682166
0.127079789412
0.12870016794
0.130446659832
0.132313315953
0.134294439533
0.136384611676
0.138578690962
0.14087177928
0.143259147003
0.145736112699
0.148297876216
0.150939309393
0.153654714326
0.156437565451
0.159280257173
0.162173880923
0.165108062713
0.168070880076
0.171048866131
0.174027144783
0.176989646575
0.179919465375
0.182799246605
0.185611747075
0.188340087171
0.190968555664
0.193482748906
0.195869692628
0.198118279244
0.200218858209
0.202162586561
0.203940846447
0.205544099556
0.206958834234
0.208162313424
0.209146231676
0.209799124308
0.21009843923
0.186897129834
0.185514622235
0.183966660177
0.182062315409
0.179921212998
0.177559280732
0.174980249185
0.172193567339
0.169220647751
0.166095391827
0.162859251673
0.159556510643
0.156230603851
0.152921735774
0.149665657247
0.146493236405
0.143430522153
0.140499074669
0.137716421102
0.135096553034
0.132650418697
0.130386383654
0.128310645494
0.126427595525
0.124740125218
0.123249877562
0.121957445609
0.120862529374
0.119964077557
0.11926041113
0.118749182501
0.118427014883
0.118289622704
0.118334588213
0.118564636997
0.118976106758
0.119560265185
0.120311507645
0.121223813501
0.122290990317
0.123506704155
0.124864543632
0.126358091818
0.127981002786
0.129727079219
0.131590346794
0.133565119297
0.135646046551
0.137828135654
0.140106735421
0.142477474648
0.144936146571
0.147478535417
0.150100188212
0.152796141454
0.15556061964
0.158386733564
0.1612662001
0.164189128337
0.167143905763
0.170117140891
0.173093819763
0.176057469877
0.178990606147
0.1818750113
0.184692657437
0.187425495608
0.190056897501
0.192571667248
0.194955935478
0.197198178846
0.199288672052
0.201218769982
0.202980527539
0.204565832604
0.205964615658
0.20715195245
0.208136779626
0.208791389136
0.209133437878
0.185212388855
0.18382922234
0.182213863233
0.180123520329
0.177759855111
0.175166119784
0.17238307245
0.169440906598
0.166369958401
0.163203437064
0.159976353008
0.156723853383
0.153479623817
0.150274772092
0.14713721023
0.144091408661
0.141158402841
0.138355956688
0.135698818746
0.133199027646
0.130866236094
0.128708030574
0.126730230139
0.124937153247
0.123331846322
0.121916271139
0.120691452537
0.119657597114
0.118814201477
0.118160133785
0.117693561872
0.117411659446
0.117310898229
0.117389752748
0.117651193681
0.118090918843
0.11869940978
0.119471611335
0.120401739211
0.121483738419
0.12271133447
0.124078117902
0.125577631346
0.127203461588
0.128949334971
0.130809212715
0.132777380052
0.134848520305
0.137017762528
0.139280689842
0.141633296153
0.144071880538
0.146592870243
0.149192574292
0.151866878166
0.154610891807
0.157418597037
0.160282502116
0.163193355982
0.166140046135
0.169109401649
0.172086467992
0.175054485843
0.177995641725
0.180890861047
0.183721745059
0.1864690726
0.189115499367
0.191645340526
0.194043737539
0.196298802442
0.198400573382
0.20034020753
0.202109973807
0.203701909034
0.205108743669
0.206299984464
0.207300725399
0.207963402606
0.208347260881
0.182756983531
0.181411939648
0.179787725629
0.177610849771
0.175134912891
0.172416320644
0.169523435912
0.166502380957
0.163391787958
0.160225864808
0.157035986143
0.153851229652
0.150698402239
0.147601942758
0.144583830437
0.141663542214
0.138858074983
0.136182033439
0.133647776266
0.131265606313
0.129043986263
0.126989760799
0.125108369006
0.123404035216
0.12187993081
0.120538303503
0.119380577617
0.118407438679
0.117618908732
0.117014367271
0.116592425645
0.116350787804
0.116286916778
0.116400344561
0.116693360524
0.117161152144
0.117794040891
0.118587410683
0.119535678616
0.120632891161
0.121872801365
0.12324897044
0.124754867517
0.126383975166
0.128129901498
0.129986496666
0.131947967887
0.134008983164
0.136164750383
0.138411055493
0.14074424365
0.143161130889
0.145658828171
0.148234476924
0.150884917156
0.153606272063
0.156393546908
0.15924022588
0.162137836556
0.165076015416
0.168041935254
0.171020999581
0.173996231951
0.176949981103
0.179862200042
0.182714890731
0.18548764478
0.188162626728
0.190724183554
0.19315618763
0.195446678772
0.197585445857
0.199562955272
0.201371447533
0.203001936808
0.204448516266
0.205673080953
0.206712264824
0.207397022044
0.207826493765
0.179714993537
0.17842749591
0.17683084802
0.174638813528
0.172134769046
0.169377290507
0.166453517045
0.163419949836
0.160321683997
0.157194471043
0.154067954624
0.150967549019
0.147915570573
0.144931871185
0.142034162942
0.139238176883
0.136557756565
0.134004946842
0.131590105662
0.129322042961
0.127208177264
0.125254695596
0.123466703342
0.121848354456
0.120402955843
0.119133043546
0.118040437908
0.117126297559
0.116391165402
0.115834911652
0.115456493531
0.115254016148
0.115226293939
0.115374981806
0.115699646215
0.116194484084
0.116851448932
0.117665962025
0.118632539248
0.119745267182
0.120997889651
0.122383910182
0.123896696435
0.125529594341
0.127276054091
0.129129766915
0.131084807135
0.133135768595
0.135277880314
0.137507081416
0.139820031978
0.142214051954
0.144686955182
0.147236759668
0.149861351011
0.152557977877
0.15532279493
0.158150484535
0.161033403882
0.163962287202
0.166924665718
0.169906789282
0.172891381051
0.175861852306
0.17879679723
0.181679750086
0.184489028418
0.187206383946
0.189817239442
0.192303702056
0.194654940253
0.196861140326
0.198910914895
0.200795903486
0.202505226996
0.204031285463
0.205328443289
0.20643542265
0.207163247613
0.207649382216
0.17623150652
0.175019711597
0.173479742948
0.171325012977
0.168854770589
0.16612350377
0.163230338665
0.160237344396
0.157194037495
0.154137564391
0.151096932874
0.14809554562
0.145152984608
0.142286108404
0.139509679186
0.13683670454
0.134278634583
0.131845502791
0.12954605507
0.127387881137
0.125377545531
0.123520709254
0.121822233575
0.120286260661
0.118916268143
0.117715097675
0.116684968533
0.115827502038
0.115143742087
0.114634022644
0.114297596888
0.114132893741
0.114140183367
0.114323804344
0.114679463244
0.115199813736
0.115880140847
0.116715410955
0.117700125884
0.118828358945
0.120093817895
0.12148993021
0.123009943552
0.124647042996
0.126394487116
0.128245762995
0.130194755698
0.132235919884
0.134364435962
0.136576331135
0.138868521551
0.141238789609
0.143685651463
0.146208006914
0.14880485818
0.151474677611
0.154214811453
0.15702146353
0.15988765901
0.162805778543
0.16576350166
0.168748743241
0.171743536714
0.174733665019
0.177695511665
0.180615358897
0.183470295014
0.186241713463
0.188918545725
0.191480219247
0.193919406692
0.196228058453
0.198389991748
0.200394791525
0.202229434423
0.203880573079
0.205299122104
0.206514154803
0.207317402014
0.207883643832
0.172446728486
0.171321736518
0.169858400339
0.167777982567
0.165385296561
0.162727227152
0.159909968014
0.156997477245
0.154041910405
0.151081344252
0.148144664468
0.145254267004
0.14242816558
0.13968134295
0.13702658097
0.134474956653
0.132036152607
0.129718675355
0.127530029784
0.125476867784
0.123565113323
0.121800060723
0.120186443502
0.118728473769
0.117429853656
0.116293762401
0.115322833172
0.114519147061
0.113884224235
0.113418842942
0.113122624231
0.112994435653
0.113035433515
0.113250671689
0.113635403027
0.114181381787
0.114884620022
0.115740203926
0.116742702371
0.117886203575
0.119164387965
0.120570610216
0.122097996289
0.123739560692
0.125488348845
0.127337607214
0.12928097975
0.131312717406
0.133427874291
0.13562249126
0.137893664222
0.140239559858
0.142659388283
0.145152880058
0.147720188037
0.150361122017
0.153074057992
0.15585728549
0.158703961138
0.161609000796
0.164559682698
0.16754668302
0.170550509029
0.17356047939
0.176549684157
0.179508634108
0.182414358361
0.185248028564
0.188006775553
0.190665328778
0.193219347363
0.195662897347
0.197973512694
0.200138866786
0.202145664045
0.203974941618
0.205576936267
0.206960408003
0.207890582117
0.208581339345
0.168486754109
0.167452003666
0.166076048788
0.164093641123
0.161807221593
0.159254194963
0.156544229192
0.153740468787
0.15089626844
0.148050050935
0.145230714919
0.14246017432
0.139755574997
0.13713075108
0.13459718028
0.132164601692
0.129841433123
0.127635072401
0.125552126623
0.123598587616
0.121779959529
0.120101340969
0.118567465202
0.117182703982
0.115951041307
0.114876025223
0.113960714268
0.11320764125
0.112618768605
0.112195287831
0.1119372566
0.111844097313
0.11191751627
0.112162470213
0.112574545973
0.113145045109
0.113870224572
0.114745259648
0.115764776426
0.116922884594
0.118213249657
0.119629168161
0.12116365695
0.122809565427
0.124559719082
0.12640709993
0.128345066869
0.130367611423
0.132469578708
0.134646947498
0.136896915232
0.139217898121
0.14160981119
0.144073091954
0.14660899614
0.14921889421
0.151901643422
0.154658619871
0.157482086431
0.160370649509
0.163310284339
0.16629512459
0.169303273439
0.172328146119
0.17533970984
0.178335311015
0.181296707375
0.18420056312
0.187055766809
0.189834023426
0.192522334517
0.195116813249
0.197604096948
0.199973022289
0.202207615511
0.204282861222
0.206144932991
0.207772679436
0.208903015308
0.20978318261
0.164454520656
0.163508647086
0.162224283008
0.1603532755
0.15818998661
0.155761734153
0.153179081404
0.150502449543
0.147785277934
0.145065735744
0.142372643856
0.139727634521
0.137147354401
0.134644927316
0.132230977978
0.12991433973
0.127702562633
0.125602289914
0.123619538438
0.121759899742
0.120028670482
0.118430920101
0.11697150534
0.115655042452
0.11448584787
0.11346786047
0.112604565495
0.111898932979
0.111353327387
0.110969283967
0.110747273461
0.110687361351
0.110791720837
0.111064786894
0.111502750845
0.112096442719
0.112842292936
0.113735554023
0.114770909232
0.115942501954
0.117244003791
0.118668679657
0.120209464194
0.121859063118
0.123610091723
0.125455260618
0.127387607354
0.12940082931
0.131489476204
0.133649391472
0.135877830447
0.138173225553
0.140536267259
0.142967913025
0.145470306907
0.148046890334
0.150695904055
0.15342325041
0.156218878291
0.15908574919
0.162007779153
0.164982085818
0.167985066725
0.171015508367
0.174045878294
0.177075559668
0.180103511259
0.183086135245
0.186028683329
0.188917579671
0.1917450851
0.194507512932
0.197198139726
0.199808558912
0.202323488347
0.20471424122
0.206922594895
0.208891408799
0.210336241581
0.211522408711
0.160430548346
0.159569567252
0.158376825079
0.156623205783
0.154591141578
0.152298166135
0.149853955542
0.147314948855
0.14473385235
0.14214803264
0.139586030199
0.137069198802
0.134613839164
0.132232606633
0.129935564119
0.127730950887
0.125625760513
0.123626176761
0.121737893572
0.119966333444
0.118316775717
0.116794407828
0.115404314996
0.114151424001
0.113040415194
0.11207562058
0.111260934412
0.110599737849
0.110094748308
0.109747710025
0.109559348664
0.109530649508
0.109664905018
0.109964869667
0.110427125029
0.111042380479
0.111807268042
0.112717118933
0.113766669361
0.114950106989
0.116261133304
0.117693015358
0.119238643188
0.120890614085
0.122641356591
0.124483326376
0.126409200421
0.128412385243
0.130487044115
0.132628797181
0.13483501758
0.137103758646
0.139436656465
0.141835011289
0.144301364925
0.146842147099
0.149453364607
0.152146680344
0.154908430911
0.157745075667
0.16063937802
0.163591247703
0.166580625362
0.169608141952
0.172669317438
0.175727036273
0.178786545803
0.181827473368
0.184845887772
0.187836159723
0.190796013346
0.193726683495
0.19662910354
0.199501582757
0.202333863846
0.20509845494
0.20773549035
0.210154971548
0.212074761047
0.213727158474
0.156476901233
0.155695339389
0.154591509238
0.15295606674
0.15105706664
0.148903099002
0.146601756562
0.144204748041
0.141763483878
0.139314067295
0.136884523625
0.134495829578
0.132163968175
0.129901245309
0.12771734626
0.125620140289
0.123616306071
0.12171180746
0.119912237057
0.118223040113
0.116649633165
0.11519743565
0.113871835402
0.112678107795
0.111621304762
0.110706134754
0.109936868354
0.109317261219
0.108850333801
0.108537899208
0.108380742791
0.108381299683
0.10854588654
0.108872264733
0.109355786624
0.109990489689
0.110772420197
0.111696853521
0.112758532156
0.113951687797
0.11527007396
0.116706997281
0.118255346836
0.119907659655
0.121656205399
0.123493242177
0.125411017854
0.12740271096
0.12946200722
0.131584147395
0.133766890932
0.136007310296
0.138308257717
0.140671346418
0.143098650427
0.145600600231
0.148169179732
0.150821856461
0.153541443235
0.15633621063
0.15919346528
0.162113342026
0.165096767527
0.168109200657
0.171157410272
0.174220977329
0.177293656103
0.180365160782
0.183432153285
0.186494914817
0.189558014929
0.192630338057
0.195722557018
0.198843516571
0.201992792175
0.205150244106
0.208258736864
0.211200057863
0.213696867737
0.21583360777
0.152640663679
0.151932242119
0.15091282428
0.149392757537
0.147624318271
0.145608261157
0.143449312473
0.141194081168
0.138892323736
0.136578520943
0.134279965765
0.13201712252
0.129805623952
0.127657476339
0.125582103982
0.123587168118
0.121679218176
0.119864187191
0.118147741979
0.116535499979
0.115033130532
0.113646363809
0.112380933131
0.111242473703
0.110236395328
0.109367751474
0.108641143529
0.108060644179
0.10762952289
0.107349657301
0.107221937316
0.107249971407
0.107441869028
0.107792850225
0.108296331675
0.108948631888
0.109745529925
0.110682294263
0.111753694499
0.112954025567
0.114277118007
0.11571635826
0.117264675887
0.118914614232
0.120658289977
0.122487900552
0.124395118854
0.126373035728
0.128414800892
0.13051496594
0.13267226129
0.13488202213
0.137148548307
0.139473936356
0.141858504184
0.144317178465
0.14683668253
0.149438839731
0.152109140506
0.154851669046
0.157677734993
0.160552725122
0.163489687532
0.166468773738
0.169483015582
0.172519832177
0.175571449447
0.178632109362
0.181701335046
0.184784314192
0.187892306459
0.191042612929
0.194256680504
0.197556021571
0.200953044436
0.204439299878
0.207956832179
0.211337177581
0.214293800501
0.216770023631
0.148956727662
0.148314856913
0.147374280445
0.145964411874
0.144321127056
0.142438552673
0.140418056234
0.138301049533
0.136135434295
0.133953810318
0.131782564765
0.129641517235
0.127545897899
0.125507429272
0.123535350006
0.121637229885
0.119819627147
0.118088584305
0.116449968773
0.114909670945
0.113473681526
0.112148076199
0.11093893743
0.109852238827
0.108893710698
0.108068709018
0.10738212185
0.106838285236
0.106440685516
0.10619139163
0.106091661736
0.106145817054
0.106361857865
0.106734949605
0.107257021666
0.107924965792
0.108734604771
0.10968124267
0.110759694623
0.111964337389
0.11328909312
0.114727470749
0.116272460683
0.117916719664
0.119652135084
0.121471123579
0.123364501384
0.125325490148
0.127346764951
0.129421661536
0.131550749587
0.133726879223
0.135955629537
0.138239872515
0.140576522578
0.142984805451
0.145450407303
0.147989873171
0.150617716379
0.153299176037
0.156057966043
0.158876042145
0.161749254717
0.164664983211
0.167613007191
0.170582773126
0.173566525479
0.176560168307
0.179565094831
0.182589435273
0.185648884461
0.188766931474
0.191973405714
0.195299973401
0.198768570021
0.202376005788
0.206024149411
0.209452894091
0.212894539961
0.216808705744
0.145450232323
0.144868353858
0.144000507659
0.142694192319
0.141168829504
0.139413119208
0.137524784508
0.135540133809
0.133505131367
0.131450329192
0.12940108922
0.12737647789
0.125391274033
0.123456918727
0.121582514476
0.119775620729
0.118042900144
0.116390597924
0.114824859222
0.113351899413
0.111978053674
0.110709738637
0.109553358868
0.108515184424
0.107601218669
0.10681707844
0.106167907118
0.105658266452
0.105291824386
0.105070946569
0.104997546235
0.105076468376
0.105314521503
0.105707506771
0.106246126374
0.10692751423
0.107747499164
0.108701393665
0.109784040374
0.110989911638
0.112313009142
0.113747024411
0.115284965457
0.116919801781
0.118642930155
0.120447482219
0.12232298713
0.12426305499
0.12626018047
0.128305747293
0.130402960748
0.132541605655
0.134727640667
0.136965382299
0.139249070473
0.14159601958
0.144015526043
0.146488858392
0.149039990205
0.151654768644
0.154335443204
0.157072225961
0.159856233489
0.162675628674
0.165518456034
0.168373419967
0.171231620154
0.17408799907
0.176942877432
0.179803297782
0.182684021242
0.185607908386
0.188604682064
0.191705749066
0.194928720378
0.198245672388
0.201427062373
0.204437673232
0.208015044035
0.214087568606
0.142138684986
0.141610483558
0.140809083805
0.139598869908
0.138183160002
0.13654635753
0.134782402662
0.132922724159
0.13101135278
0.129076704971
0.127143052248
0.125228631377
0.123347735334
0.121511522792
0.119728992071
0.118007744078
0.116354603555
0.114776068519
0.113278594484
0.111868731642
0.110553146445
0.109338564332
0.108231667946
0.107238975695
0.106366718969
0.105620742496
0.105006432106
0.10452855912
0.104190896922
0.103996077616
0.103947048343
0.104049516365
0.104307625521
0.104718321874
0.105271284704
0.105963785738
0.106791615782
0.107750054884
0.108833921749
0.110037819128
0.111355760991
0.112781739078
0.114308592987
0.115929979683
0.117636264646
0.119422039266
0.121275101702
0.123189594183
0.125158295472
0.1271696931
0.129230019131
0.1313259411
0.133462924104
0.135646704165
0.137881049483
0.140166550195
0.142511499213
0.144915855093
0.147385445001
0.149914656834
0.152499428425
0.155130574352
0.157796554882
0.160483716287
0.16317762353
0.165864277807
0.168531456977
0.171169952543
0.173774643149
0.176345256123
0.17888660034
0.181407892361
0.18392022673
0.186429813648
0.188920795368
0.191307822491
0.193230036348
0.194328416565
0.194672961019
0.198232278939
0.139033720274
0.138553243423
0.137812076553
0.13669017183
0.135375373495
0.133848810879
0.132200607693
0.130457620436
0.12866201183
0.126840039802
0.125014868682
0.123203861055
0.121420806676
0.119676581418
0.117980098109
0.116339026002
0.1147603767
0.113250914235
0.111817400263
0.110466696682
0.109205761814
0.108041579868
0.106981057976
0.106030912159
0.105197557741
0.104487034328
0.103904958355
0.103456301271
0.103144827338
0.102973278925
0.102946319729
0.103072173275
0.103349161081
0.103774664798
0.10433953347
0.105040689616
0.105873786662
0.106834021047
0.107916066037
0.109114758774
0.110423938783
0.111838142117
0.11334961945
0.114953350564
0.116637920312
0.11840021748
0.120226115096
0.122109938211
0.124045142146
0.126016222845
0.1280324232
0.130080636521
0.132165454564
0.134297263204
0.136464129367
0.138680526892
0.140949392319
0.143271632062
0.145648363456
0.148075010461
0.150544227945
0.153044734344
0.155562073068
0.158079406818
0.160578529602
0.163040896843
0.165448540685
0.16778469361
0.170033916004
0.172181421516
0.174211072112
0.176101044582
0.177815056677
0.179284346445
0.180369029093
0.180760842324
0.179795552927
0.174914757441
0.15875252776
0.103511926215
0.136142505637
0.135704223929
0.13501730271
0.133975896242
0.132753189654
0.13132793637
0.129786485255
0.12815147683
0.12646331292
0.124746120515
0.123021979777
0.121307362342
0.119615553151
0.117957146093
0.116340976371
0.114774787742
0.113265776604
0.111820957187
0.110447365799
0.109152130517
0.107942446557
0.106825498537
0.105808362512
0.104897904684
0.104100688292
0.103422923033
0.102870442574
0.102448417858
0.102160597
0.102009828686
0.102002809425
0.102151006254
0.102446062643
0.102882884048
0.103457136098
0.1041644905
0.105000260961
0.105959579368
0.107036715763
0.108226999039
0.109523706546
0.110922372471
0.112414034876
0.113995837424
0.115653965772
0.117387965181
0.119181878551
0.121028951505
0.122923834214
0.124849010745
0.126811825415
0.128816287754
0.130840776577
0.132904748471
0.135004036409
0.137144194718
0.139328312402
0.141556847653
0.143827965505
0.146135359789
0.14846865923
0.150813383666
0.15315140359
0.15546167008
0.157721001455
0.159904748053
0.161987126361
0.163940965761
0.165736511974
0.167338721372
0.168702047715
0.169760837616
0.170411550317
0.170478862597
0.169648152105
0.167322667143
0.162337238567
0.151928926667
0.127815666165
0.0768126760266
0.133468849934
0.133067677741
0.132429335914
0.131460813417
0.130321566625
0.1289887433
0.1275450133
0.126009180739
0.124420020154
0.122799592546
0.121168947328
0.119543670185
0.117936552277
0.116357906965
0.114816490945
0.113320112516
0.111876131017
0.110491775309
0.109174308515
0.107931068905
0.106769430193
0.105696722418
0.104720143403
0.103846673377
0.103083001002
0.10243549168
0.101910166323
0.101512367809
0.10124599461
0.101114393036
0.101125452673
0.101290041683
0.101600098791
0.102047778612
0.102629615463
0.103340957838
0.104176823793
0.105132592406
0.106201644554
0.107380316783
0.108660758579
0.110040166153
0.11150782815
0.113063591877
0.114690998585
0.116391368488
0.118147209104
0.119949760708
0.121794467214
0.123675864485
0.12558383222
0.12752383596
0.129488030248
0.131481362293
0.133504536901
0.135560484527
0.137650885231
0.139774547092
0.14192683949
0.144098615135
0.146276058061
0.148440827104
0.150570475457
0.15263903317
0.154617527287
0.156474212216
0.15817424939
0.159678500704
0.160940951594
0.161903990219
0.162490215732
0.162588398576
0.162029178541
0.160542203989
0.157678495733
0.15266849749
0.14415167474
0.129737295848
0.104362352356
0.0628897633304
0.131014066466
0.130645358074
0.130050301781
0.129147382515
0.128083323178
0.126834312238
0.125479475796
0.124034165854
0.122535678481
0.121004099522
0.119459522775
0.117916668583
0.116387854595
0.114883114971
0.113411120297
0.111979721727
0.11059640615
0.109268568726
0.108003641377
0.106809109168
0.10569245964
0.104661104837
0.103722302312
0.10288308497
0.102150210832
0.101530156734
0.101029083205
0.100652475486
0.100404635007
0.100290100729
0.100317866775
0.100496190431
0.100818715482
0.101275317619
0.101862666589
0.102575737188
0.103408937386
0.104358514423
0.10541617836
0.106580058106
0.107840702233
0.109197457989
0.110637660831
0.112163233865
0.113754940849
0.115413589018
0.117123321171
0.118875800072
0.120671199654
0.122493967177
0.124344484323
0.126219179615
0.128114206361
0.130030943355
0.131970582034
0.133934390469
0.135922047455
0.137930018901
0.139950614039
0.141971248665
0.143974247199
0.145937024502
0.147832477848
0.149629418241
0.151292812726
0.15278358518
0.154057684576
0.155064045216
0.155740899919
0.156009608677
0.155764636076
0.154857394715
0.153070080819
0.15007305267
0.145354668423
0.138108473401
0.127042232015
0.110162513527
0.0839071741503
0.0475350120345
0.128777639578
0.128437169633
0.127880498414
0.127036314722
0.126039631905
0.124866210179
0.123591796091
0.12222866548
0.120812791968
0.119362393504
0.117896697785
0.11642959064
0.114972942788
0.113536509909
0.112128864221
0.110757870363
0.109431099222
0.10815605681
0.106940280483
0.105791334513
0.104716750973
0.103723954099
0.102820191304
0.102012479644
0.101307589912
0.100712089112
0.100232280633
0.0998737458139
0.0996412601512
0.0995413074812
0.0995845780119
0.0997744099386
0.100107609496
0.100571146398
0.101161780758
0.101874252856