/*--------------------------------*- C++ -*----------------------------------*\
| =========                 |                                                 |
| \\      /  F ield         | OpenFOAM: The Open Source CFD Toolbox           |
|  \\    /   O peration     | Version:  v1806                                 |
|   \\  /    A nd           | Web:      www.OpenFOAM.com                      |
|    \\/     M anipulation  |                                                 |
\*---------------------------------------------------------------------------*/
FoamFile
{
    version     2.0;
    format      ascii;
    class       volScalarField;
    location    "700";
    object      p;
}
// * * * * * * * * * * * * * * * * * * * * * * * * * * * * * * * * * * * * * //

dimensions      [0 2 -2 0 0 0 0];


internalField   nonuniform List<scalar> 
6400
(
0.188977625885
0.188735046343
0.18835461494
0.187967969527
0.187819224402
0.187442823434
0.186583410766
0.185127416292
0.183119632406
0.180622217583
0.177718423552
0.174501129367
0.171064154162
0.167495999301
0.163875947334
0.160272107033
0.156740918346
0.153327645955
0.150067461438
0.146986807078
0.144104826655
0.141434727185
0.138984996755
0.136760446185
0.134763070401
0.132992741518
0.131447754112
0.130125246113
0.129021520708
0.128132292581
0.127452873535
0.126978301515
0.126703448073
0.126623208534
0.126732877278
0.127028590208
0.127507142446
0.128163358999
0.128989496527
0.129979074277
0.131126777413
0.132426695264
0.133872851221
0.135459331875
0.137180341486
0.139030215142
0.141003405768
0.14309444853
0.145297902211
0.147608267021
0.150019878799
0.152526782085
0.155122586539
0.157800314712
0.160552251399
0.163369807996
0.166243416186
0.169162466489
0.17211530524
0.175089301447
0.178070989209
0.181046285805
0.184000776687
0.186920050916
0.189790060772
0.192597470848
0.195329949282
0.197976343557
0.200526676829
0.20297188837
0.205303199543
0.207510882978
0.209582106135
0.211497995766
0.213231278832
0.214744146596
0.215977217232
0.216826947693
0.21718558794
0.217162811458
0.189019551666
0.188742209913
0.188478712089
0.188135558051
0.187722348294
0.187393534561
0.186518945286
0.185026090468
0.18297053185
0.180421771461
0.177469346543
0.174209912869
0.170739303628
0.167146674054
0.163510992574
0.159899436485
0.15636718802
0.152958149255
0.149706175684
0.146636531339
0.143767363428
0.141111074886
0.138675531768
0.136465083098
0.134481395528
0.132724118857
0.131191405309
0.129880306302
0.128787072135
0.127907378605
0.127236497502
0.126769395875
0.12650073785
0.126424913897
0.126536554007
0.126831766926
0.127308908366
0.127964688743
0.128792789507
0.129786014466
0.130936974983
0.132239213052
0.133686590164
0.135273167355
0.136993169442
0.138840969469
0.14081106961
0.142898065314
0.145096589939
0.147401234228
0.149806442461
0.152306384114
0.15489480809
0.157564884334
0.160309046056
0.163118843267
0.165984825312
0.168896465682
0.171842146279
0.17480921064
0.177784095378
0.180752538088
0.183699856235
0.186611278898
0.189472308173
0.192269075279
0.194988649208
0.19761924033
0.200150246816
0.202572080149
0.204875647983
0.207051342307
0.209087380876
0.210967510807
0.212668469549
0.214156945101
0.215383743992
0.216276585556
0.216753083411
0.216815782504
0.189500442812
0.18909373338
0.188630115296
0.188245971494
0.187665461762
0.186920214545
0.185741307211
0.184040470072
0.181831088226
0.17917263989
0.176149615694
0.172854236609
0.169377432092
0.165803024961
0.162204575579
0.158644133286
0.155172297738
0.151829085875
0.148645217071
0.145643543518
0.14284045186
0.140247137884
0.137870709561
0.135715107314
0.133781850692
0.132070630245
0.130579766597
0.129306559595
0.128247551457
0.12739873097
0.126755684954
0.126313650109
0.126067363931
0.126011013708
0.126139741106
0.126452888224
0.126948218581
0.127618549635
0.128457099357
0.129457878325
0.130614565154
0.131920963361
0.133371018818
0.134958829868
0.136678651834
0.138524897059
0.14049212376
0.142575008125
0.144768294179
0.147066718217
0.149464905555
0.151957240735
0.154537714489
0.157199755141
0.159936054767
0.162738404506
0.165597554808
0.168503118197
0.17144353067
0.17440608577
0.177377049488
0.180341858344
0.183285393471
0.186192315853
0.18904743742
0.191836096061
0.194544496978
0.19715996017
0.199671023833
0.202067384166
0.204339514637
0.206477860632
0.20847166031
0.210307255944
0.211965540413
0.213418553007
0.214627179752
0.215540983641
0.216088174464
0.216203501866
0.190194714249
0.189678395843
0.189000287094
0.188261710513
0.187320382851
0.186118247255
0.18454600052
0.182550816008
0.180135607772
0.177346979145
0.174256412172
0.170944531166
0.16749154664
0.163971411972
0.1604488541
0.156978320912
0.15360414777
0.150361417293
0.147277144107
0.144371545708
0.141659258547
0.139150427041
0.136851637071
0.134766691401
0.132897238616
0.131243272638
0.129803520876
0.128575740888
0.127556950042
0.126743609274
0.126131745925
0.125716924573
0.125494023374
0.125457453679
0.125603586015
0.125934203914
0.126445867424
0.127129510386
0.127979212626
0.128988791742
0.130152057189
0.131462901104
0.132915328366
0.134503479772
0.136221651606
0.138064308718
0.140026085922
0.142101771334
0.144286266232
0.146574516293
0.148961411421
0.151441653256
0.154009593572
0.15665905004
0.159383110726
0.162173941901
0.165022617484
0.167918988988
0.170851615656
0.173807771128
0.176773537723
0.179733992975
0.18267348253
0.185575965818
0.188425410726
0.191206200085
0.193903530023
0.196503732961
0.198994434488
0.20136465569
0.203604624697
0.20570512859
0.207656713614
0.209448518002
0.211066023604
0.212487903678
0.213684659932
0.214618523853
0.215218560436
0.2153854693
0.190856376909
0.190108485628
0.189136615361
0.187977000127
0.186590816497
0.184943851035
0.182977735783
0.180670063684
0.178032498764
0.1751063589
0.171951166303
0.168633889775
0.165221253478
0.161774874667
0.15834878757
0.154988595298
0.151731633936
0.148607687229
0.145639943503
0.142846006144
0.140238853316
0.137827696769
0.135618721074
0.133615703049
0.131820519961
0.130233557485
0.128854028696
0.127680220466
0.126709696012
0.125939458995
0.125366020302
0.124985232139
0.124792114858
0.124781938814
0.124953291865
0.1253070353
0.12583818002
0.12653809492
0.127401167691
0.128421414326
0.129592803362
0.130909318508
0.132365012982
0.133954053845
0.135670760287
0.137509634118
0.139465377555
0.141532892223
0.143707252544
0.145983647335
0.148357284604
0.15082325743
0.153376372309
0.156010946447
0.158720585077
0.161497955096
0.164334575404
0.167220645777
0.170144936889
0.173094763638
0.176056053329
0.17901352006
0.181950937749
0.184851499491
0.187698248046
0.190474514597
0.193164378207
0.195753114231
0.198227334104
0.20057527952
0.202786901701
0.204853229581
0.206765819322
0.208516081177
0.210093427457
0.211482402768
0.212661060129
0.213601316956
0.214233004816
0.214448551136
0.191098333161
0.190006395084
0.18873543612
0.187190830716
0.185396244346
0.183350252511
0.181035198856
0.178452156776
0.175621794842
0.172582691133
0.169384483249
0.166081228859
0.162726253898
0.159368795522
0.15605225511
0.152813592996
0.149683439712
0.146686597358
0.143842715508
0.14116701248
0.138670971076
0.136362973516
0.134248859989
0.132332407098
0.130615728573
0.129099602289
0.1277837286
0.126666932896
0.125747341526
0.125022532173
0.124489538798
0.124144541261
0.123982829485
0.124001044673
0.124200783727
0.124579765872
0.125130940362
0.125848208167
0.126725706605
0.127757527116
0.12893771725
0.130260314697
0.131719397866
0.133309140845
0.135023867732
0.136858101442
0.138806600968
0.140864379751
0.14302669693
0.14528901312
0.147646903556
0.150095924024
0.152631429279
0.155248349572
0.15794093689
0.160702497893
0.163525138254
0.166399542946
0.169314817297
0.172258423145
0.175216215381
0.178172605019
0.181110837498
0.184013361617
0.186862317747
0.189640008011
0.192329376234
0.194914720206
0.197381644956
0.199717548667
0.201912137023
0.203956556483
0.205842934851
0.207564199481
0.209112503649
0.210476454801
0.211638553524
0.212579225318
0.213229221889
0.213490037378
0.190353150243
0.189096431106
0.187636470191
0.185799753987
0.183689623865
0.181332389437
0.178746265625
0.175952720491
0.172980549231
0.169866731524
0.166653167943
0.163383213414
0.160098798354
0.156838509048
0.153636566045
0.150522461205
0.147521020232
0.144652708614
0.141934059793
0.139378150639
0.136995079419
0.134792419495
0.132775632616
0.130948433193
0.129313099868
0.127870733114
0.126621460149
0.125564597755
0.124698798856
0.124022177418
0.123532269077
0.1232256745
0.123098173586
0.123147477425
0.123376495789
0.123781824503
0.124355010615
0.125090848249
0.125983742788
0.127027954323
0.128217620755
0.129546815629
0.131009614344
0.132600165528
0.134312763775
0.136141919137
0.13808241692
0.140129359471
0.142278179933
0.144524617104
0.146864641249
0.149294323448
0.151809645288
0.154406253614
0.157079173145
0.159822492781
0.162629056954
0.165490193253
0.168395490951
0.171332701982
0.17428773622
0.177244812349
0.180186756191
0.183095352876
0.185951926668
0.188737875712
0.191434997442
0.194026814885
0.196498011383
0.198835039877
0.201027434284
0.203066303013
0.204943897808
0.206653958679
0.208190176668
0.209543550344
0.210698139018
0.211641902635
0.212304922602
0.212608305554
0.188650492665
0.187358753582
0.185815374753
0.183797362764
0.1814820778
0.178917085332
0.176150389458
0.173220560524
0.17016414421
0.167017880223
0.163818298575
0.160600752912
0.157398396955
0.154241454031
0.151156816441
0.148167910222
0.145294748853
0.142554112401
0.13995980638
0.137522966573
0.135252383358
0.1331548242
0.131235337624
0.12949752719
0.127943788285
0.126575503947
0.12539320089
0.124396675832
0.123585108896
0.122957145901
0.122510828367
0.122243308983
0.122151140936
0.122232928935
0.122491793944
0.122923714273
0.123519506549
0.124274526063
0.125183427473
0.126240618804
0.127440306199
0.128776572666
0.130243460129
0.131835057157
0.133545590493
0.135369516596
0.137301606656
0.139337015746
0.141471324227
0.14370053752
0.146021030126
0.148429423258
0.150922388735
0.153496381078
0.156147316646
0.158870208078
0.161658792802
0.164505215628
0.167399716607
0.170330513446
0.173283739901
0.176243571298
0.17919259158
0.18211206337
0.184982631836
0.187785096668
0.190500072829
0.193110680097
0.195600855884
0.197955895848
0.200165312659
0.202219884536
0.204111548503
0.205834323107
0.207382258742
0.208747282353
0.209912568673
0.210871758034
0.211551040524
0.211896882159
0.186200549449
0.184925320688
0.183360952786
0.181254208457
0.178833541717
0.176157180739
0.173296022798
0.170301470547
0.16721673185
0.164079212473
0.160922151128
0.15777543925
0.154665983462
0.151617878119
0.148652497518
0.145788568885
0.143042262668
0.140427319811
0.137955221654
0.135635396067
0.133475445848
0.131481382563
0.129657850493
0.128008329295
0.126535307532
0.125240422865
0.124124572833
0.123188009827
0.122430421719
0.121850952403
0.121448075727
0.121219471985
0.121162727197
0.121277581181
0.121566370827
0.122024527264
0.122642826334
0.123417080387
0.124342159153
0.125412581994
0.126622590523
0.127966244813
0.129437518748
0.131030402051
0.132739009557
0.134557695156
0.13648116402
0.138504572809
0.140623604182
0.142834498392
0.145134021986
0.147519359932
0.149987919473
0.152537036379
0.155163624478
0.157863758238
0.160632211009
0.163462136663
0.166344596036
0.169268469358
0.172220319975
0.175184443419
0.178143436455
0.181078272099
0.183969076541
0.18679665424
0.189540293435
0.192183261903
0.194709011494
0.197101259818
0.199350126618
0.201445713187
0.203379195319
0.205144728134
0.206735580261
0.208142756991
0.209346266795
0.210342044973
0.211048775387
0.21144151376
0.183178605927
0.181948004022
0.180403161272
0.178277116515
0.175830046206
0.173121702784
0.170239018467
0.167241627082
0.164177735077
0.161085681439
0.157996908216
0.154937875784
0.151931344092
0.148997165245
0.146152740661
0.143413279175
0.140791960965
0.138300075723
0.135947169866
0.133741212151
0.131688771961
0.129795197727
0.128064783645
0.126500915937
0.12510619234
0.123882511786
0.122831142262
0.121952789892
0.121247648611
0.120715343355
0.120354691223
0.120163777465
0.120141596289
0.120290197755
0.120608859173
0.121091918807
0.121732225721
0.122525544806
0.123466842057
0.124550682417
0.125771304554
0.127122715738
0.128598791946
0.130193389285
0.131900468232
0.133714229079
0.135629252584
0.137640634555
0.139744098622
0.141936068117
0.144213666727
0.14657463098
0.149017127408
0.151539422156
0.154139506349
0.156814652283
0.159560769895
0.162372231077
0.165241063558
0.168157003872
0.171107293998
0.17407651062
0.177047612244
0.180001666744
0.182918347278
0.185779385666
0.188562301931
0.191251281217
0.193829783549
0.196279262025
0.198592733905
0.200759327925
0.202767988835
0.204613141277
0.206286355786
0.207774935384
0.209053477221
0.210115047031
0.210868458878
0.211319371349
0.17973161744
0.178566787702
0.177071848281
0.174978045404
0.172563709524
0.169884424613
0.167037549873
0.164086907161
0.161083987343
0.15806790005
0.15506920371
0.152112353495
0.149217512866
0.146401725097
0.143679623413
0.141063848149
0.138565306287
0.136193362258
0.1339560068
0.131860020529
0.129911131895
0.128114161967
0.126473148948
0.124991448187
0.123671804874
0.122516399217
0.121526875811
0.120704383972
0.12004960623
0.119562630507
0.119242587879
0.119087915654
0.119099005867
0.119280338421
0.119627859994
0.120134485198
0.120796029589
0.121607929343
0.122565171623
0.1236623259
0.124893603732
0.126252940675
0.127734094438
0.129330760776
0.131036709067
0.132845937206
0.134752840925
0.136752385455
0.138840260099
0.141013000583
0.143268032023
0.145603599538
0.148018631962
0.150512349396
0.153083849892
0.155731756979
0.15845312071
0.16124376411
0.164096779316
0.167002925886
0.169950452956
0.172924365259
0.175908361286
0.178884087877
0.181830468635
0.184731237891
0.187561464898
0.190307945718
0.192955338407
0.195481349254
0.197886935125
0.200159277798
0.202281053271
0.204247184726
0.206046644905
0.207661185137
0.209060760889
0.210229619983
0.21106469526
0.211596252374
0.175996660068
0.174910527939
0.173486210269
0.171461296758
0.169121903281
0.166516142593
0.163747576499
0.160881059672
0.15796988488
0.155053549708
0.152162186855
0.149319132724
0.146542989434
0.143848993216
0.141249888209
0.138756474369
0.136377968434
0.13412226764
0.131996163466
0.130005523954
0.128155447954
0.126450388982
0.124894247194
0.123490430542
0.122241886814
0.121151110391
0.120220138184
0.11945056129
0.118843528047
0.118399574487
0.118118225181
0.117998389773
0.118041319464
0.118252123118
0.118626437948
0.119156428669
0.119838591711
0.120668505405
0.121641240828
0.122751393522
0.123993153401
0.125360384919
0.126846723272
0.128445691424
0.130150843087
0.131955934025
0.133855118276
0.13584316047
0.137915630842
0.140069089817
0.142301195517
0.144610620054
0.146997037745
0.149460632551
0.152001534336
0.154619940709
0.157313868994
0.160080870706
0.162915157637
0.165808621416
0.168750922192
0.17172750179
0.174722934686
0.177719765969
0.180695636777
0.183637820427
0.186518774325
0.1893314352
0.1920639831
0.194686674322
0.197211025263
0.199620107609
0.201889242465
0.204015172245
0.205984799082
0.207776892803
0.20935788804
0.210693295202
0.211667326176
0.212316680559
0.172095358516
0.171093143172
0.169751213006
0.167819112335
0.165582697006
0.163080851207
0.160420188826
0.157664254839
0.154866948348
0.152067678355
0.149296293654
0.146575485698
0.143922921042
0.14135268035
0.138876229436
0.136503069567
0.134241193311
0.132097424545
0.130077683769
0.128187196012
0.126430647418
0.124812293436
0.123336023103
0.12200538596
0.120823588332
0.119793467656
0.118917461671
0.118197592904
0.117635440092
0.117231955599
0.116987123353
0.116900437936
0.116973705327
0.117211941769
0.117611196712
0.118163284525
0.118864962377
0.11971192021
0.120699300691
0.121821728448
0.123073380724
0.124448062385
0.125939295985
0.127540434714
0.129244807245
0.131045901447
0.13293758155
0.1349143492
0.1369715698
0.139105721583
0.141314633695
0.143597273526
0.14595401366
0.148386042699
0.150894242457
0.153480774405
0.156144206883
0.158884153796
0.161695993079
0.164572645244
0.167505458782
0.170479864993
0.173481259923
0.176493483608
0.179493242324
0.182475059863
0.185410824501
0.188297842924
0.191131072222
0.193874174119
0.196530223034
0.19908731047
0.201533287054
0.203860228692
0.206053438665
0.208087293531
0.209920372444
0.211493271298
0.212677450229
0.213489031511
0.168127615618
0.167209413957
0.165955060366
0.164129696752
0.16201301877
0.159634100648
0.157100304038
0.15447219805
0.151803363056
0.14913262566
0.146489495302
0.143896207704
0.141369826423
0.138923670365
0.136568335241
0.134312419543
0.132163060814
0.130126343801
0.128207612394
0.126411700156
0.124743087809
0.123205995872
0.121804422986
0.120542141764
0.119422663514
0.118449185985
0.117624544389
0.116951174582
0.116431043449
0.116065448978
0.115854809968
0.115799300615
0.115901223614
0.116165101808
0.11658765973
0.117160357983
0.117880154139
0.118742836063
0.11974361362
0.120877147795
0.12213761962
0.123518796829
0.12501411314
0.126616771479
0.128319882152
0.130116659282
0.132000640229
0.133966018593
0.136007884598
0.138122494426
0.140307828158
0.142562955115
0.144888832811
0.147287828079
0.14976096313
0.152313028961
0.15494250351
0.157651305148
0.160435984701
0.163289750557
0.166205755674
0.169168746495
0.172165693535
0.175185253247
0.178203998978
0.181225223797
0.184230725845
0.187192917365
0.190110354371
0.192966688309
0.195758841638
0.198481170681
0.20112733742
0.203690744514
0.20615763165
0.208499849159
0.210666593462
0.212568560221
0.214057239644
0.215077292772
0.164172077592
0.163334957378
0.162168984429
0.160456947397
0.158468292841
0.15622254803
0.153826194061
0.151335717975
0.148803700932
0.146267928701
0.143757413121
0.141293947687
0.138894134696
0.136570751073
0.134333788699
0.132191231858
0.130149655268
0.128214685208
0.126391345898
0.124684303366
0.123098017648
0.121636816735
0.120304908852
0.119106349838
0.118044980343
0.117124352388
0.11634767265
0.115717756359
0.115236903484
0.114906621077
0.114727608938
0.114701018017
0.114830354413
0.115118480983
0.115562554653
0.116154081677
0.116890249536
0.117766941559
0.118779423936
0.119922397673
0.121190065626
0.122576186854
0.124074139328
0.125677009732
0.127377708031
0.129169194512
0.131044651154
0.132997938907
0.135023848828
0.13711820479
0.139279207966
0.141505789022
0.143799235526
0.146163556232
0.14859890594
0.151113571813
0.153705214032
0.156377651072
0.159128659766
0.161950238074
0.164838027607
0.167779192111
0.170761395978
0.173786281119
0.176831377908
0.179877260704
0.182917657638
0.185936617076
0.188928065613
0.191884758961
0.194805636866
0.197691411522
0.200543246829
0.203360648808
0.206135369495
0.208842272945
0.211426809928
0.213777862499
0.215718269176
0.217009196183
0.160289353996
0.159528616528
0.158448926444
0.156851589339
0.154993126643
0.152884299308
0.150629590839
0.148280745748
0.145888876871
0.143490339079
0.141113454895
0.138779496984
0.136504637589
0.13430122364
0.132178815681
0.130144995263
0.128206004411
0.126367241009
0.124633623646
0.123009836492
0.12150046796
0.120110061932
0.118843103926
0.117703963324
0.116696808447
0.115825517768
0.115093626426
0.114504282143
0.11406006148
0.113762547237
0.113612537522
0.113612689727
0.113769661407
0.114081325362
0.114543601366
0.115151684747
0.115902133714
0.116790773345
0.117812868747
0.118963151497
0.120235861745
0.121624781139
0.123123267312
0.124724341317
0.126420728862
0.128205191845
0.130070529761
0.132010248844
0.134018921085
0.136091596273
0.138226906474
0.140423427622
0.142682294502
0.145009983182
0.14740447937
0.149878102304
0.152427171647
0.155055740861
0.157763543787
0.160542715153
0.163390064475
0.166307686528
0.169277045507
0.172283260803
0.175318860024
0.178368286493
0.181421848637
0.184469623529
0.187507162764
0.190533451034
0.19355274826
0.196573209167
0.199605315311
0.202658393333
0.205734672604
0.208818982042
0.211862548402
0.214745912159
0.217259682642
0.218993831102
0.156525283031
0.155835242392
0.154837842928
0.153352953753
0.151622567666
0.149649728688
0.147536175895
0.145328588194
0.143076313424
0.140813969003
0.138569008129
0.136362070201
0.134208875409
0.132121392888
0.130108865967
0.128178630668
0.126336776637
0.124588657367
0.122939256738
0.121393422102
0.119955981264
0.118631767359
0.117425579179
0.116342101739
0.11538580597
0.114560852351
0.113871041186
0.113319780753
0.112909865277
0.112642956415
0.112520007354
0.11254481947
0.11272565624
0.113058590312
0.113537862292
0.114160585935
0.11492318375
0.115821492973
0.116850797009
0.118005867526
0.119281000224
0.120670035642
0.12216633671
0.123762937704
0.125452367252
0.127227293707
0.129080100701
0.131003871498
0.132993228958
0.135041928087
0.137149388753
0.139313773152
0.141535281965
0.143823752384
0.146173700312
0.148600918214
0.151100742135
0.153676446155
0.156330088097
0.159064594336
0.161872647335
0.164741302654
0.167667412769
0.170636653202
0.173637784937
0.176658463512
0.17968943381
0.182724146745
0.185760988882
0.188803680131
0.191862110057
0.194951762844
0.198092591039
0.201304429879
0.204601474271
0.20797986789
0.211389181683
0.214661312229
0.217527990006
0.219743346044
0.152913657496
0.152288198432
0.151367951387
0.149990837951
0.148383526766
0.146542500362
0.144566273004
0.14249638182
0.140380248074
0.138250531045
0.136133671569
0.134049565768
0.132013443461
0.13003691954
0.128128998723
0.126296888599
0.124546663427
0.122883770597
0.121313382939
0.119840608211
0.118470577522
0.117208441858
0.116059308543
0.115028145471
0.114119674212
0.113338277272
0.112687956219
0.112172307065
0.111794297592
0.111555785985
0.111458138072
0.111505913873
0.111707370552
0.112058817047
0.112553337489
0.113188583264
0.113961032621
0.114866540724
0.115900407385
0.117057443749
0.118332006037
0.119718043605
0.121208910854
0.122797793386
0.124476934389
0.126239075288
0.128076159909
0.129980656713
0.131947792438
0.133969376233
0.136045976736
0.138175476769
0.140356031775
0.142601356785
0.144901666117
0.147274706867
0.149717891246
0.152236432879
0.154838266133
0.157507364982
0.160251095873
0.163057952734
0.165918971376
0.168821819106
0.171754512319
0.174705641834
0.177666375499
0.180631571294
0.183601310357
0.186581887346
0.189586583826
0.192635273724
0.195753769476
0.198967068475
0.202294527724
0.205727618701
0.209159944767
0.212310815356
0.215604793151
0.219664397432
0.149478662584
0.148911602942
0.148062762944
0.146787234345
0.145296159869
0.143580617084
0.141735607737
0.13979762717
0.137812111635
0.135809622216
0.133815492113
0.131848785967
0.129924209343
0.128053035636
0.126244087147
0.124504528136
0.122840515057
0.121257682944
0.119761470093
0.118357295002
0.117050612363
0.115846882102
0.114751486406
0.113769623734
0.112906203331
0.112165766741
0.111552457371
0.111069987157
0.110721431004
0.110508926429
0.110434516885
0.110503392511
0.110722958716
0.111090409748
0.111597891824
0.112243326454
0.113023185457
0.1139332827
0.114968899972
0.116124877761
0.11739560275
0.118775229484
0.120256988613
0.121834468821
0.123499405752
0.125244842745
0.127062334227
0.128943375688
0.130884608759
0.132875258221
0.134917065407
0.13700786949
0.13914235764
0.141338123833
0.143584414392
0.145895373981
0.148286233069
0.150734491251
0.153261522794
0.155858351435
0.158522065672
0.161243595818
0.164012144949
0.166814966646
0.169638977064
0.172471987832
0.17530425582
0.178129829319
0.180947837537
0.183763425081
0.186588261889
0.189439667338
0.192339980566
0.195304965474
0.198342021179
0.201394548682
0.204198415491
0.206802878561
0.210129988084
0.216002091492
0.146236926954
0.145722261141
0.144938856196
0.143757862566
0.142375123847
0.140777405924
0.139056050288
0.137242732057
0.135380920841
0.133499010521
0.131621180341
0.129765604682
0.127946444872
0.126174643396
0.124458880767
0.122806335966
0.121223309672
0.119715677567
0.118289177769
0.116949550084
0.115702559077
0.114553939185
0.113509298003
0.112574005433
0.111753094142
0.111051203751
0.110472569436
0.110020956248
0.109699429726
0.109510362945
0.109456813527
0.10954488254
0.109780010022
0.110160866282
0.110678842432
0.111332014327
0.112116759414
0.113028757596
0.114063213623
0.115215006672
0.116478437724
0.117848081222
0.119316726098
0.120878794254
0.122525140449
0.124249376782
0.126042907603
0.127895741092
0.12980665525
0.131761766069
0.133763343977
0.135809850704
0.137893351773
0.14002991564
0.142228163107
0.144471403898
0.146784739866
0.149160651478
0.151604102524
0.154110850479
0.156674806377
0.159286022999
0.161931768791
0.164597420702
0.167267717987
0.169928054364
0.172565792973
0.175171419762
0.177739443498
0.180268803032
0.182762476742
0.185224987131
0.187659661912
0.190045622579
0.192358457734
0.194471320423
0.195966577044
0.19598550481
0.194315073511
0.195785697002
0.143199276962
0.142731304256
0.14200738414
0.140913484049
0.139630673327
0.138142398817
0.136536295739
0.134839520017
0.133093648203
0.131324897242
0.129556290411
0.127805082692
0.126084887493
0.124406327929
0.122777971299
0.121207046273
0.119700029125
0.118263054893
0.116902162045
0.115623392543
0.114432784217
0.113336296505
0.112339705351
0.111448490224
0.110667738751
0.110002118935
0.109455896713
0.10903281649
0.108735742244
0.108567053689
0.108531434266
0.108637467099
0.10888610801
0.109277197857
0.109802994851
0.110461341503
0.111248398428
0.112159578083
0.113189899197
0.114334371196
0.115586902682
0.116942930849
0.118394194027
0.119936590427
0.121559707429
0.123257909389
0.125022845772
0.126842312228
0.12871744274
0.130631038116
0.132585226439
0.134579711018
0.136615114552
0.138691495706
0.140816937626
0.14299172298
0.145224278707
0.147513915504
0.149860661546
0.152259808721
0.154702828023
0.157177430069
0.159668188203
0.162157477598
0.16462657437
0.16705675338
0.16943025417
0.171730955
0.173944591316
0.176058260537
0.178058793736
0.179928551143
0.181638746074
0.183107392717
0.184265910386
0.184614788889
0.182451120982
0.174888064094
0.155726817218
0.0996625018088
0.140372102449
0.139945506961
0.139275308863
0.138260994977
0.137069587746
0.135682090099
0.134182459435
0.1325936809
0.130955549443
0.12929214221
0.127625361209
0.125971538661
0.124343751237
0.12275231556
0.121205704435
0.119711212155
0.118275497449
0.116904947323
0.115605877181
0.114384593172
0.113247357493
0.112200299456
0.111249305763
0.110399906636
0.109657180379
0.109025745057
0.108509821229
0.108113059337
0.107837975516
0.107686745084
0.107666059442
0.107788437192
0.108048921791
0.108445891451
0.108976602372
0.109637515058
0.110424307233
0.111331967367
0.112355105418
0.113489156818
0.114727012982
0.11606575144
0.117495258644
0.119013626192
0.120609052619
0.12227637285
0.124007733807
0.125787624845
0.127619195999
0.129485241865
0.131387054291
0.133330978459
0.135301880463
0.137312046763
0.139363916619
0.141459508044
0.143602883224
0.145793935107
0.148029845637
0.150303603433
0.152603831719
0.154915069241
0.157218363822
0.159492107672
0.161712928116
0.163856445797
0.165897715446
0.167811140776
0.16956961312
0.171142538504
0.172492348347
0.173568988432
0.17430461464
0.174598389466
0.174500087499
0.172260213118
0.165791695902
0.152400721589
0.125561053896
0.0746910768448
0.137758480685
0.137368353953
0.136746399339
0.135804316204
0.134695935853
0.133400569902
0.131998581029
0.130509155303
0.128970441722
0.12740444981
0.125832023164
0.124268588128
0.122726707671
0.121216405597
0.119746071211
0.118323066179
0.116954221633
0.115646153283
0.114405418683
0.113238545669
0.112151975439
0.111151962697
0.11024446334
0.10943501794
0.108728645978
0.108129836995
0.107642649193
0.107270522801
0.107015602927
0.106879898944
0.106871143239
0.107002457105
0.107270335635
0.107671887673
0.108205338166
0.108866424978
0.109650401035
0.110551860324
0.11156458841
0.112685115129
0.113904390734
0.115222164828
0.116625884597
0.118116047224
0.119679631172
0.121310600152
0.123001610014
0.124735363219
0.126512576418
0.128333726774
0.130176788207
0.132055462051
0.133961784294
0.135899185593
0.137870490722
0.139877759789
0.141922486892
0.144002918735
0.146113489602
0.148244116618
0.150379989717
0.152501857089
0.154586594192
0.156607898026
0.158536906601
0.160342523573
0.161991209439
0.163445946445
0.164663966429
0.165592585694
0.166161997346
0.166272730941
0.165773273885
0.164412491757
0.16175783812
0.156783223328
0.14755184896
0.132024079038
0.105615942825
0.0633621816403
0.135359019088
0.13500086831
0.134422020307
0.133545104864
0.132511694298
0.131300042504
0.129987041023
0.128588454005
0.127140934
0.125664519494
0.124179078544
0.122699162921
0.121236853509
0.119801895021
0.118402598673
0.117046385761
0.115740239767
0.114490974136
0.113305350445
0.112190077179
0.111151733325
0.110196657655
0.109330830297
0.10855974799
0.107888298397
0.107320724166
0.106860742609
0.10651142902
0.106274570247
0.106152074303
0.106152274361
0.106287811118
0.106558617666
0.106961733958
0.10749542899
0.108154094008
0.108932450882
0.109824918106
0.110823748913
0.11192762711
0.113124705811
0.114418083877
0.11579268606
0.117250183826
0.11877646629
0.120363384735
0.122003253342
0.123690126208
0.125412448538
0.127171266355
0.12895595241
0.130766503428
0.132600001072
0.134457532336
0.136340936935
0.138251170874
0.14018741629
0.142145398193
0.144116426122
0.14608686237
0.148038024219
0.14994649076
0.151784626938
0.153521118503
0.155121295227
0.156547000199
0.157755729388
0.158698687322
0.15931724093
0.159536934085
0.159257612323
0.158336994634
0.156562724371
0.153602169145
0.148915743859
0.141555445472
0.130007013796
0.112364664287
0.0854834018795
0.0484343662229
0.133172540313
0.132842268524
0.132301754066
0.13148331773
0.130517241709
0.129381244311
0.128148899511
0.126832919342
0.125468615612
0.124074167756
0.122668564031
0.12126552208
0.119876677848
0.11851151009
0.11717825361
0.115884376177
0.114636989285
0.113443072118
0.112309555858
0.111243297103
0.110250983782
0.1093390116
0.108513354698
0.107779428348
0.10714193639
0.106604773305
0.106171095219
0.105843351287
0.10562289863
0.105511379648
0.105517201455
0.105651938596
0.105921095089
0.106322202403
0.106853296926