/*--------------------------------*- C++ -*----------------------------------*\
| =========                 |                                                 |
| \\      /  F ield         | OpenFOAM: The Open Source CFD Toolbox           |
|  \\    /   O peration     | Version:  v1806                                 |
|   \\  /    A nd           | Web:      www.OpenFOAM.com                      |
|    \\/     M anipulation  |                                                 |
\*---------------------------------------------------------------------------*/
FoamFile
{
    version     2.0;
    format      ascii;
    class       volScalarField;
    location    "700";
    object      pa;
}
// * * * * * * * * * * * * * * * * * * * * * * * * * * * * * * * * * * * * * //

dimensions      [0 2 -2 0 0 0 0];


internalField   nonuniform List<scalar> 
6400
(
0.0896735160391
0.0836670249157
0.0802833562532
0.0804448466876
0.115680857717
0.155386928665
0.206118319596
0.279783752337
0.368931301556
0.45847916364
0.539008255245
0.607531405194
0.663687776799
0.707622758037
0.739753609669
0.760926499493
0.772334324742
0.775305899538
0.77114444248
0.761052907777
0.746106654948
0.72724633735
0.705278794965
0.680886675823
0.654641908309
0.627022666581
0.598429190208
0.569199887787
0.53962533339
0.509963917225
0.480460829448
0.451390408008
0.423136622503
0.396297884694
0.371157850929
0.344664704086
0.30300900666
0.241968369021
0.16443981867
0.0771142661337
-0.0151971294951
-0.110093159596
-0.206397368245
-0.303254559197
-0.399861816547
-0.495471245765
-0.589399777068
-0.681007586582
-0.769672001307
-0.854773797137
-0.935690514785
-1.01179486439
-1.08245496145
-1.14704010726
-1.20493129538
-1.25553960107
-1.29833059926
-1.33285620321
-1.35879031563
-1.37596726616
-1.38441740653
-1.38439702815
-1.37640639213
-1.36119364547
-1.33974033455
-1.31323002989
-1.28299802792
-1.25047068592
-1.21708443838
-1.18421556805
-1.15304547485
-1.12453280241
-1.09904148694
-1.07668300925
-1.05580101687
-1.03620288768
-1.01208695774
-0.992541054125
-0.961206148942
-0.987726871872
0.0348523249543
0.00939463903626
0.0194653122834
0.0519480416566
0.128359889719
0.298291792443
0.518443194851
0.805723153155
1.1616945369
1.56986667034
2.01317203308
2.47923525694
2.95845736675
3.44239890397
3.92370552585
4.39639058314
4.85583104782
5.29854840074
5.7219710225
6.12424845767
6.50410528472
6.86071805883
7.19360942366
7.50256221649
7.78755037181
8.04868647402
8.28618003134
8.50030720283
8.69138724211
8.85976680408
9.00580830001
9.12986994348
9.23231444093
9.31373909823
9.3769607752
9.43293660494
9.50188027131
9.5737366205
9.63133826094
9.66833893599
9.68423005139
9.67885712195
9.65152712962
9.60140640572
9.52774884309
9.42990460463
9.30729435478
9.15941517541
8.98586744864
8.78638513292
8.56086695813
8.30941018495
8.03235007012
7.73030418014
7.40422128293
7.05543129026
6.68569277469
6.29723134177
5.89276189793
5.47548624903
5.049058715
4.6175140091
4.1851554128
3.75640571678
3.33562864215
2.92693236276
2.53397137143
2.15975879869
1.80651248126
1.4755217921
1.167102205
0.880490917878
0.614100584633
0.365128238805
0.131314259897
-0.0919373905606
-0.299998217366
-0.5009459352
-0.630809397961
-0.790557940142
-0.0498764286044
-0.0247174191416
0.0055009214604
0.0556994541587
0.130845359369
0.229434500959
0.35704505231
0.521648667568
0.719697594866
0.938064438089
1.16403854921
1.3888462052
1.606359972
1.81183419333
2.00167900264
2.17349887482
2.32595871296
2.45853165475
2.57126271566
2.66459155292
2.73922271837
2.79602601132
2.83596072933
2.86002009106
2.86919375687
2.86444350351
2.84668969819
2.8168043222
2.7756101207
2.7238808316
2.66234654205
2.59167800891
2.51241934011
2.42436834559
2.32454815116
2.20295750063
2.06476052587
1.92560839556
1.79300013806
1.665549691
1.54205013315
1.42301615468
1.30951311893
1.20257375555
1.10313426138
1.01202837016
0.929936088399
0.857328212356
0.794428378917
0.741189318559
0.69727566588
0.662053075465
0.634584119964
0.613634103784
0.597687987705
0.58498227319
0.57355383275
0.561309244479
0.54611480339
0.525906738241
0.498816149691
0.463301033993
0.418273050226
0.363205779776
0.298210457827
0.224067576172
0.142209177977
0.0546459775553
-0.0361431204058
-0.127389864057
-0.216186179099
-0.299854434473
-0.375933994403
-0.44345130622
-0.50108218808
-0.553337249747
-0.592395701474
-0.638684609511
-0.587259053059
-0.703253667199
-0.238589103546
-0.0326435027222
-0.0507874246652
-0.0452018424464
0.0771049329292
0.230563881127
0.396137374593
0.587101517487
0.803366229179
1.03599742244
1.27750038698
1.52323230887
1.76982028308
2.01442834238
2.25476387447
2.4891260387
2.71632121037
2.93552891204
3.1461877257
3.34791576381
3.54045560252
3.72363568279
3.8973426089
4.06150320064
4.21607300482
4.36103051515
4.49637372621
4.62211943756
4.73830076557
4.84496682589
4.94216537433
5.02994542747
5.10830249688
5.17760315212
5.23919021397
5.29703357748
5.33677623737
5.35610281486
5.35945018241
5.3470863666
5.31750259779
5.27003242347
5.20474582773
5.12189296479
5.02178655674
4.90488166794
4.77182940471
4.62348543982
4.46090748308
4.28535097501
4.09825993475
3.90124772357
3.69606803093
3.48457456291
3.2686704343
3.05024628221
2.83111002253
2.61291095101
2.3970655298
2.18469230534
1.97656666175
1.77310403722
1.57437967043
1.38018696399
1.19013293425
1.00376085848
0.820691190564
0.640759491574
0.46415932324
0.291534553479
0.124145075403
-0.0362196654578
-0.186727135825
-0.324699581386
-0.444418278046
-0.546028214153
-0.609957877679
-0.663404232449
-0.544981712682
-0.693452616576
-0.473533023686
0.11370924159
-0.0332290618115
-0.0162000109258
0.209935520889
0.417242876408
0.58923573158
0.763779478062
0.947605928563
1.13524057506
1.32379653104
1.51215732798
1.6988493553
1.88198387226
2.0597074903
2.23039374327
2.39265912929
2.5453461191
2.68750769503
2.8183898277
2.93741124501
3.04414179442
3.13828161706
3.21964130349
3.28812431109
3.34371103143
3.38644538387
3.41642241016
3.43377823612
3.43867815191
3.43131073153
3.41186358839
3.38052250242
3.33727582963
3.28210426143
3.21709717481
3.14986154709
3.08218026338
3.01556429203
2.9506743079
2.88720286808
2.82484926817
2.76354344947
2.70318188289
2.64348052306
2.58398997345
2.52413673766
2.46324634441
2.40056469591
2.33529151653
2.26662380654
2.19380493258
2.11617511786
2.03322116322
1.94462109925
1.85027978614
1.75034966259
1.64523224091
1.53555600648
1.42212983806
1.30587376128
1.18773401468
1.06859286319
0.94918684032
0.830047370503
0.711474059901
0.59354986778
0.476188756511
0.359234395605
0.242539915222
0.126181590957
0.0103913748823
-0.103662060507
-0.215227970368
-0.319349094379
-0.418439397499
-0.487098420989
-0.565365900394
-0.421262188804
-0.664755608416
-0.643049259656
0.497191661984
0.132204616761
0.178862968694
0.462910021698
0.658190971801
0.794607951107
0.931086367473
1.0751013327
1.2227939689
1.37411093106
1.52960308823
1.68842545738
1.8489265495
2.00934612926
2.16804436098
2.32354335421
2.47454800115
2.61995903531
2.75886989686
2.89055147687
3.01443249879
3.13007915533
3.23717615558
3.33550960213
3.4249527263
3.50545407405
3.57702842505
3.63974973501
3.6937459709
3.73919801521
3.77634368181
3.80551592778
3.82717110955
3.84165111191
3.84568516519
3.83689774229
3.8152359894
3.7811987402
3.73533590197
3.67798579664
3.60953314335
3.53062716499
3.44212863521
3.34499729889
3.24023862575
3.12887829945
3.01192757121
2.89034175174
2.76498352597
2.63659702916
2.50579322909
2.37304787859
2.23871270427
2.10304051127
1.96622252795
1.82843528409
1.68989164247
1.55088949247
1.4118496545
1.27333518648
1.1360455014
1.00078307491
0.868395360025
0.739701106353
0.615412989927
0.496076130433
0.382023500452
0.273389605863
0.170104327388
0.0720582035591
-0.0210818098708
-0.109015301324
-0.192675720993
-0.268540727129
-0.34367730773
-0.390196054812
-0.468291917288
-0.270870194001
-0.615496577149
-0.846654813353
1.0482097896
0.377260444488
0.45395508714
0.737450062352
0.874602728231
0.958353680076
1.05204049878
1.15712348917
1.26959312808
1.38995978651
1.51834687302
1.65326828114
1.7925811028
1.93412515754
2.07588098192
2.21599661505
2.35281019304
2.48486448852
2.61090460972
2.72986456254
2.84084959173
2.94311804029
3.03606383058
3.1192004976
3.19214693764
3.25461529488
3.30640056613
3.34737214888
3.37746661816
3.39668230343
3.40507241129
3.40273647675
3.3898347272
3.36689446633
3.33670737037
3.30064732154
3.25936106536
3.21351034861
3.16362539053
3.10990568632
3.05230014756
2.9906819153
2.92491548103
2.85485205977
2.78033801537
2.70124535541
2.61750072818
2.52910238877
2.43612748391
2.33873203387
2.23714422509
2.13165156835
2.02258420527
1.91029738675
1.79515681484
1.67753026535
1.55778841321
1.4363162961
1.31353438114
1.18992537543
1.06606007201
0.94261380767
0.820365993723
0.700178026367
0.582949213647
0.469563274278
0.360819850462
0.257408755028
0.159840608981
0.0685708891572
-0.0163069026934
-0.0941119887048
-0.16595393795
-0.22792836584
-0.289859101742
-0.318978637849
-0.396519417198
-0.130360767075
-0.57428127755
-1.05488940308
1.75148470771
0.654131097837
0.756698126969
0.985925675404
1.04350405768
1.07767391681
1.13736164116
1.2147508989
1.30496982512
1.40769056107
1.52172339902
1.64471622499
1.77409571951
1.90745720717
2.04261020909
2.17757520235
2.31059021807
2.44011281632
2.56481150277
2.68355070841
2.79537378201
2.89948602493
2.99523868946
3.08211435878
3.15971414508
3.22774681314
3.28601980591
3.33443241868
3.3729699295
3.40170225417
3.42077630312
3.43042924632
3.43091163762
3.42245877187
3.40442702849
3.37657261616
3.33921088765
3.29290287567
3.23829788496
3.17603630548
3.10674516346
3.03108042852
2.94972887549
2.86336556303
2.77261125097
2.67801019135
2.58002234251
2.47902341531
2.37531240665
2.26912709758
2.16066545669
2.05010940289
1.93764734097
1.82349241291
1.70789435577
1.59114420813
1.47357262623
1.35554481016
1.23745535456
1.11972696741
1.00281512302
0.887217351587
0.773484347363
0.662224986764
0.554098552728
0.449798738574
0.350004381838
0.255364242373
0.166406423784
0.0836597736499
0.00723733954644
-0.0620970210678
-0.125743809507
-0.179291979847
-0.234925844804
-0.254175450308
-0.340512366162
-0.00607896479666
-0.549397668513
-1.26453625273
2.58767825434
0.920135107651
1.057069426
1.19683043786
1.17763559572
1.1758675882
1.21279512249
1.2725627979
1.3496286281
1.44223054711
1.54777306627
1.66320277065
1.78567250017
1.91265504277
2.04189470058
2.17137554033
2.2993081574
2.42411759339
2.54442857963
2.65904965299
2.76695750093
2.86728212786
2.9592931209
3.0423872351
3.11607746549
3.17998360896
3.23382441489
3.27741091234
3.3106416035
3.33349787982
3.34604425603
3.34843138687
3.34094955811
3.32416284942
3.29885150899
3.26546957719
3.22446901384
3.17633670878
3.12152918158
3.06044007046
2.99341512629
2.92079379401
2.84293946837
2.7602437049
2.67311736199
2.58198058045
2.4872521106
2.38933616616
2.28860885193
2.18540816564
2.08003051208
1.97273492087
1.86375463914
1.75331437386
1.64165019852
1.52902877869
1.41576158823
1.30221299159
1.18880024377
1.07598797541
0.964280719943
0.854215315704
0.746359439203
0.641310421683
0.539691472883
0.44215160434
0.349322046852
0.261813026188
0.180105791303
0.104708443162
0.0355897289482
-0.0266258254596
-0.0838160388951
-0.131301788719
-0.183701594155
-0.197530396007
-0.299278652344
0.100433931474
-0.537866688904
-1.45234919497
3.53862780122
1.14523532136
1.34504281103
1.37554112597
1.29534551185
1.27110145336
1.29321944565
1.34191613965
1.41122700852
1.49779011094
1.59786729013
1.70796734176
1.82513026215
1.94682820182
2.07085331915
2.19525899076
2.31832623485
2.43853925607
2.55456589621
2.66524165137
2.76955599909
2.86664040811
2.95575769014
3.0362926083
3.10774368808
3.1697161332
3.22191596478
3.26414486287
3.29629692162
3.31835504672
3.33039317134
3.33257201664
3.32514055076
3.30835940601
3.28233554715
3.24737034014
3.20391087922
3.15249935688
3.0937302335
3.02821391497
2.95655600598
2.87935173935
2.79718362481
2.7106138429
2.62017449917
2.52636141906
2.42963187479
2.3304035627
2.22905345081
2.12591694306
2.02128859286
1.91542532338
1.80855331451
1.70087870375
1.59260171593
1.48393384896
1.37511340775
1.26642052744
1.15818534137
1.05079004011
0.944666653847
0.840287575786
0.73816343974
0.638836161646
0.542874098575
0.450884959957
0.363470488747
0.281205067589
0.204497397329
0.133880917208
0.0691311686419
0.0106276982654
-0.0439334452723
-0.0896487080439
-0.142898213507
-0.157227467523
-0.275939950831
0.185374787525
-0.542745812747
-1.60549945561
4.57168783894
1.30481318136
1.62062075305
1.53123535591
1.41063069838
1.37319146079
1.38499059881
1.42634492206
1.49055023095
1.57266196189
1.6681194216
1.77319293474
1.88490964489
2.00081494637
2.11881393052
2.23708424023
2.35402288205
2.4682114202
2.57839285911
2.68345594065
2.78242365891
2.87444423003
2.95878366833
3.03481937629
3.10203464626
3.16001362613
3.20843726518
3.24707868232
3.27580155137
3.29455224042
3.30336877759
3.30235434866
3.29179314518
3.27214436502
3.24366669506
3.20670125167
3.16166580777
3.10902882694
3.04929256545
2.98298286302
2.91064391318
2.83283710509
2.75013877914
2.66313189864
2.57239245811
2.47847492807
2.38189969802
2.28314338307
2.18263228498
2.08073963488
1.97778706207
1.8740498369
1.76976591327
1.66514742238
1.5603929724
1.45570345356
1.35129262316
1.24740191928
1.1443077282
1.04232555539
0.941811643226
0.843151029839
0.746761603357
0.653086879985
0.562585531122
0.475740832767
0.393103167414
0.315089603759
0.241832860749
0.17395423293
0.110748147783
0.0520131213672
-0.0047868394783
-0.0549543019439
-0.113853509648
-0.140349305623
-0.26700441961
0.249887806627
-0.579709856576
-1.7126703927
5.64975197108
1.38768901044
1.89270943188
1.67262635623
1.53132594375
1.48489682514
1.48866712864
1.52477307998
1.58503100989
1.66310222304
1.75389197021
1.85357460901
1.95924336342
2.06857943821
2.17965263353
2.29080643147
2.40058784331
2.50770517971
2.6110029048
2.70944725501
2.80211736563
2.8881996496
2.96698373872
3.03785923679
3.10031288057
3.15392572398
3.19837076908
3.23340935627
3.25889080819
3.27474297774
3.2809874898
3.27770103055
3.26517757262
3.24374126712
3.21355900149
3.17495502082
3.12835693873
3.07425491559
3.01318167978
2.94570031792
2.87239418694
2.79385953539
2.71069993758
2.62351960938
2.53291408102
2.43945899853
2.34369842083
2.24613371021
2.14721418048
2.04733102748
1.94681653007
1.8459478068
1.74495670106
1.64404296962
1.54338612085
1.44316492333
1.34356251166
1.24478402196
1.14706000546
1.05064945715
0.955845871977
0.862961587859
0.772320904315
0.684272100167
0.599178404346
0.517281063175
0.439199242794
0.365043575215
0.294188617239
0.227346981241
0.163154797666
0.100118214577
0.0361577690277
-0.0256145569757
-0.0964399948792
-0.149845501987
-0.255639566559
0.28824435946
-0.664801682574
-1.76891173995
6.73444143889
1.39363158299
2.17183463358
1.80385670154
1.65975433042
1.60502202849
1.60251493875
1.63476482558
1.69154224649
1.76547287285
1.85116057428
1.94479758435
2.04361763896
2.14549238739
2.24869476897
2.35176015827
2.45340373989
2.55247410203
2.64792805381
2.73881874425
2.82428995935
2.90357413188
2.97599169797
3.04095076339
3.0979468048
3.14656179037
3.18646336031
3.21740235381
3.2392135759
3.25180583558
3.25518147049
3.24938831029
3.23474515882
3.21157118942
3.180024646
3.14040154561
3.09309824502
3.03856876353
2.97731023358
2.90985944894
2.83678736878
2.75869093143
2.67618414981
2.58988833742
2.50042069855
2.40838160941
2.31434135389
2.21882745039
2.12231337071
2.02520997134
1.92786323548
1.83055539513
1.73351501455
1.63693178961
1.540964449
1.44576943484
1.35149539391
1.2583088994
1.16639314286
1.07595604142
0.987220335742
0.900449375848
0.815865145219
0.7337175768
0.654429644569
0.577644692515
0.504151650846
0.433882356501
0.365186796535
0.297984504553
0.229885286138
0.158265429418
0.0813462012135
0.000506962224247
-0.090256990774
-0.17640451485
-0.227226579528
0.262136885341
-0.781997949872
-1.77329432494
7.79164582702
1.33225512075
2.46684879471
1.92508195796
1.79561148283
1.73115972917
1.72434914835
1.7536967182
1.80711436261
1.87660859989
1.95665115998
2.04355692245
2.13477171054
2.22840445201
2.32295969172
2.41718102813
2.50996097163
2.60029407398
2.68725354401
2.76998345458
2.84769636931
2.91967549561
2.98527710961
3.0439330451
3.09515260173
3.13852351724
3.17371231288
3.20046358941
3.218601097
3.22802201033
3.22871320457
3.22071890058
3.20433901195
3.17982312212
3.14730298215
3.10705756718
3.05947246179
3.00498920273
2.94408912654
2.87729237191
2.8051549057
2.72826194456
2.64722024491
2.56264941192
2.47517111458
2.38539617709
2.29390998474
2.20125802554
2.10793240426
2.01435965752
1.92089814826
1.82783490192
1.73539615444
1.64376584053
1.55308387606
1.4634913144
1.37510567281
1.2880688699
1.20251411354
1.11863207898
1.03655342284
0.95658029035
0.878828365918
0.803233740599
0.730654692808
0.660498485082
0.592777372127
0.527231086047
0.461257713742
0.392587290284
0.317185569597
0.231991046127
0.136112666795
0.0310029155603
-0.0848914234215
-0.194757629893
-0.192995133732
0.140576736303
-0.896306545555
-1.72866687588
8.79376308583
1.21917234705
2.78217678508
2.03366536216
1.93780294563
1.86080020798
1.85209239586
1.87910483699
1.92914370012
1.99387576
2.06775994979
2.14733488732
2.2303203959
2.31509886695
2.40042554242
2.4852603247
2.56867535
2.64981087089
2.72785554025
2.80204399146
2.8716577385
2.93603196944
2.9945604934
3.04670084785
3.09197826798
3.12998814141
3.16039723508
3.1829448167
3.19744314421
3.20377759443
3.2019231217
3.19193572947
3.17410188526
3.14859471912
3.1155351143
3.07518343715
3.02789940391
2.97409623198
2.91422830976
2.84879170025
2.77832153214
2.70338560582
2.62457707646
2.54250663059
2.45779245955
2.371048088
2.28286714598
2.19380807939
2.10437928888
2.01502148501
1.92610704219
1.83792923249
1.75071434113
1.66464667641
1.57984853677
1.49646107626
1.4145702087
1.33432629417
1.2557986064
1.1792889468
1.10475106789
1.03252145542
0.963153630336
0.896281105293
0.832536556124
0.771571967388
0.712344668654
0.653090261902
0.589872136803
0.51798822753
0.432113493488
0.329676223563
0.212140249909
0.0827445851789
-0.0584221195546
-0.188520690674
-0.193125162515
-0.0837399821075
-0.967702454157
-1.64014078844
9.72081130922
1.07270982844
3.11739795413
2.12621975121
2.08559996702
1.99168728648
1.98389157141
2.00874425996
2.05537305062
2.11506309897
2.18237355906
2.25416092906
2.32846578162
2.40396990311
2.47969053092
2.55480648141
2.62856792703
2.7002579441
2.76917766626
2.83465053859
2.89602560891
2.9526902368
3.00407600229
3.04966706526
3.08900578535
3.12169653664
3.14740718097
3.16587335034
3.17689166447
3.18033781416
3.176135407
3.16440825393
3.14546615335
3.11931786236
3.08610268022
3.04608162438
2.99958969454
2.9470079251
2.8887591837
2.82530957661
2.75716588701
2.68487004522
2.60899295137
2.53012802684
2.44888186834
2.36586349973
2.28166845835
2.19686362671
2.11197302468
2.02745065337
1.94368777197
1.86098776424
1.77958088189
1.69966482521
1.62134955412
1.54479632473
1.47005546137
1.39739951581
1.32674686566
1.25860180161
1.19338637706
1.13112456119
1.07247057984
1.01741535099
0.966028448648
0.917535209768
0.869747794478
0.81868751696
0.758285911776
0.681960653577
0.584578856328
0.465535760815
0.328682509826
0.17596084153
0.00267138209887
-0.170091161539
-0.260554135564
-0.358470240847
-0.948930778187
-1.51414586217
10.5600565383
0.910979174362
3.46785424251
2.20011935464
2.23877783911
2.12169239266
2.11807493144
2.14057534891
2.18384400158
2.2382895346
2.29873927786
2.36244210471
2.42778975939
2.49378048574
2.55969873377
2.6249413426
2.68893333849
2.7510969053
2.81084250546
2.86758024475
2.92072459933
2.96971478563
3.01401901873
3.05314810426
3.08666209539
3.1141748903
3.13535705923
3.14994148727
3.15771136774
3.15853108472
3.15228762281
3.13916248088
3.11944362091
3.09303035912
3.06005475479
3.02078191767
2.97553102511
2.92465575763
2.86854857553
2.80764368168
2.74241468628
2.6733708002
2.60105255851
2.52602810383
2.44888432604
2.37021917771
2.29062439748
2.21067092021
2.1308996166
2.0517775175
1.9737206784
1.89704836125
1.82200749359
1.74881086802
1.67758105205
1.60856070916
1.54173140031
1.47755942699
1.41646177764
1.35869895636
1.3048462273
1.25532001711
1.21071457901
1.17127671256
1.13665923617
1.10488877301
1.07162853675
1.03021160842
0.9725412949
0.891443843021
0.782953582997
0.647286934469
0.485779747965
0.293451650025
0.0629920429228
-0.17922956722
-0.374743709671
-0.579209269934
-0.884689800397
-1.35752390927
11.3050450937
0.749987907077
3.82601438235
2.25442934895
2.39730896432
2.24872550777
2.25317096126
2.27276214167
2.3128550732
2.36192941809
2.4153653869
2.4708397567
2.52711273358
2.58350920403
2.63958135483
2.69494187107
2.7491872963
2.80187599622
2.85252536808
2.90063030498
2.94566832303
2.98713016606
3.0245177292
3.05736848916
3.08526009653
3.10781636648
3.12471324037
3.13568309743
3.14049984638
3.13901719934
3.13109840128
3.11697132069
3.09684233971
3.07055480624
3.03821979696
3.00010225738
2.95651226374
2.9077832111
2.85428188115
2.79641275194
2.73461534964
2.66936243851
2.60115772654
2.53053717644
2.45805999685
2.38430715776
2.30986141619
2.23529428157
2.16116650727
2.08795772327
2.01612154019
1.94598651216
1.87785708062
1.81194562826
1.74848739382
1.68774961409
1.63023642171
1.57629903947
1.52631587003
1.48101056182
1.44116175776
1.40775178095
1.3816639856
1.36294275651
1.34996714571
1.33836963693
1.32060081093
1.28694990301
1.22731487692
1.13348517746
1.00014940632
0.824085923521
0.602081914026
0.331938442889
0.028455517541
-0.257028599618
-0.478982710593
-0.667141990654
-0.802613685328
-1.17698968601
11.9542920173
0.602596364134
4.18294115954
2.29013853157
2.56088937319
2.37076361759
2.38793047916
2.4036523718
2.44092193159
2.48455740965
2.53095452081
2.57819116511
2.62540799282
2.67226065266
2.71856671284
2.76415261483
2.80878392693
2.85215372855
2.89388498088
2.93355528615
2.97070282729
3.00486876846
3.03558342879
3.06241191854
3.08494821751
3.10282664887
3.11573341443
3.12340385834
3.12560804414
3.12218656998
3.11298979264
3.09824374708
3.07806479285
3.05227411549
3.02097096071
2.98441758356
2.94291289748
2.896768461
2.84632412519
2.79195448062
2.73406478559
2.67309075966
2.60949579492
2.54378018323
2.47646872853
2.40812226559
2.33931120159
2.27060368273
2.20258952438
2.13576188909
2.07063314485
2.00750142487
1.94691292735
1.88887300695
1.83427657845
1.78339692414
1.73630951608
1.69392500518
1.65687831032
1.62653817022
1.60438152483
1.59184397099
1.58956506323
1.59620298464
1.60719431852
1.6139408068
1.60403657835
1.5631020236
1.47685705114
1.33326115771
1.12415294692
0.847731644279
0.513150882808
0.148285655251
-0.1926150958
-0.446333453745
-0.599940210218
-0.693825286061
-0.744023267443
-0.978758267677
12.5099873935
0.478199839616
4.52959254196
2.30991508265
2.72858140431
2.48600734018
2.52132295767
2.53175402476
2.56674946356
2.60491172527
2.64436107344
2.68346196022
2.72175280051
2.75921805975
2.79593696435
2.83194873017
2.86718629445
2.90147797856
2.93455076107
2.96606234649
2.995609037
3.02277925175
3.04712433275
3.06824078274
3.08573465425
3.09925320482
3.10850116306
3.11321932884
3.1131776976
3.10820333588
3.09815910773
3.08320435465
3.06335360033
3.03843108897
3.00853864648
2.97393814023
2.93491919335
2.89177346193
2.84481281605
2.79437886285
2.74083865808
2.68458927256
2.62604954052
2.56568337374
2.50397616296
2.44146614459
2.37871163891
2.31628389167
2.25480077564
2.19477393742
2.13688611508
2.08122296117
2.02897523369
1.98029006173
1.93541980047
1.89508146675
1.8595444128
1.83027963697
1.80877560554
1.79716078818
1.79740015927
1.81061282429
1.8356826129
1.86761222708
1.89617484517
1.90570897797
1.87640053053
1.78731384733
1.62007330548
1.3637046279
1.02053357902
0.612567974864
0.184399884703
-0.202531186459
-0.488226967641
-0.647636909357
-0.717934559489
-0.742476989432
-0.757874817474
-0.768383126257
12.9768214679
0.38287932971
4.85777444597
2.31758715619
2.89866106237
2.59306980558
2.65247831051
2.65571751734
2.68921240405
2.72186913375
2.75456549076
2.78571961131
2.81530418169
2.84362255769
2.87101247345
2.8977257342
2.92386196588
2.94938675953
2.97412758554
2.99781932797
3.02011329938
3.04063783673
3.05895859502
3.07471070758
3.0875026075
3.09700465686
3.10295369329
3.1050909571
3.10318284666
3.09702806869
3.08651498473
3.0717595315
3.05261854178
3.02895362941
3.00088236876
2.96865205374
2.9325302212
2.89278782742
2.84971326809
2.80361887223
2.75483110251
2.7037081298
2.65061942298
2.59599176558
2.54026620961
2.48396441322
2.42762253061
2.37184097139
2.31728024777
2.26448936427
2.21441978189
2.16748947646
2.12443602521
2.08549577307
2.05097013413
2.02193712024
1.99952911171
1.98597968001
1.98363603103
1.99506130093
2.02173954252
2.06265079965
2.11221377019
2.15847396248
2.18238584636
2.1591999742
2.06220267467
1.86884006627
1.56812601128
1.16862983675
0.704141739023
0.232366968211
-0.178657848995
-0.475445511056
-0.642814620333
-0.710251084904
-0.718998104065
-0.670245540417
-0.548573248538
-0.550677342425
13.3610345217
0.319832233775
5.16072821912
2.31754743206
3.06867410623
2.69112187225
2.78059271666
2.77433909311
2.80734054232
2.83442877581
2.86065989345
2.88412040568
2.90528933069
2.92476777771
2.94315083736
2.96090289828
2.97829039826
2.99541847082
3.01220744525
3.02846849862
3.04390153466
3.05816260218
3.07083050397
3.08158583019
3.09002339023
3.09586914977
3.09891084704
3.09887465875
3.09552174953
3.08855247607
3.0779439596
3.06380758261
3.04574532213
3.02368959327
2.99781295395
2.96835518132
2.9355458449
2.89961678579
2.86082296891
2.81944879079
2.77578067588
2.73014141383
2.682844734
2.63428915274
2.58486380591
2.53508269195
2.48543506705
2.43670839477
2.38946284694
2.34480105274
2.30350288033
2.26567742457
2.23210999314
2.20318925916
2.1798042141
2.16365137722
2.15681647461
2.16228374782
2.18282123417
2.2203324906
2.2738118685
2.3371726968
2.39698925399
2.43152197774
2.41215115698
2.30811124696
2.09425878147
1.76069872342
1.32140625718
0.818276573221
0.315926312265
-0.115068185061
-0.422993575446
-0.596226521038
-0.665343248682
-0.675188644057
-0.640658676394
-0.528388831171
-0.345621988369
-0.329738908318
13.6696673324
0.289921819761
5.43338954093
2.31421172016
3.23563889086
2.77994699628
2.90483113243
2.88658505045
2.92030125462
2.94170220036
2.96184055856
2.97790396056
2.99100420335
3.00200205615
3.01175271341
3.02093198368
3.02997417063
3.03912346537
3.04838164338
3.0576402746
3.06663189243
3.07502720818
3.08242711967
3.08855094071
3.09296721866
3.09553008462
3.0960849785
3.09433153581
3.09002608951
3.08279766071
3.07258481274
3.05939557071
3.04276150624
3.02264617117
2.99927457356
2.97290123685
2.94373647597
2.91197274971
2.87781592685
2.84151026388
2.80328717759
2.76344311377
2.72223215305
2.68001870885
2.63714128056
2.5942067598
2.55149850058
2.51036715349
2.47143769406
2.43527402313
2.40284162717
2.37427622866
2.35052613759
2.33244716168
2.32165424395
2.32060271217
2.33221777884
2.35977297803
2.40529720065
2.46797253136
2.54140417347
2.61127580446
2.65410265718
2.63878190472
2.5318853539
2.30663508344
1.95365128765
1.49001628911
0.96192259415
0.437113252555
-0.0135466641543
-0.33953482558
-0.527975636662
-0.604448119563
-0.615055037795
-0.595588504624
-0.536821129269
-0.404416356902
-0.236049563058
-0.108991306914
13.9100217419
0.292245884825
5.67240108402
2.3116054605
3.39632263806
2.85990099142
3.02425901916
2.99162627695
3.02737594804
3.04290961133
3.05740352313
3.0663918652
3.07181583269
3.07473386249
3.07626976891
3.07730748436
3.07845014765
3.08007486314
3.0822537755
3.08496767513
3.08794698289
3.09087863138
3.09339863993
3.09522933089
3.09593774937
3.09561610838
3.09412130135
3.09111295223
3.08640347889
3.07953738447
3.07027830721
3.05838636848
3.04341836309
3.02550745389
3.00496583808
2.9820095889
2.95680126647
2.92950497712
2.90028117049
2.86934016263
2.83684749845
2.80305136153
2.76815449869
2.73252594522
2.69641594228
2.66061240833
2.6256700394
2.59251988871
2.56192049972
2.53441341024
2.51095571796
2.49203444394
2.47888834144
2.47297238297
2.47667858692
2.49316007965
2.52568043182
2.57665642726
2.64537109018
2.72556029863
2.80262898522
2.85238496773
2.8424657744
2.73787487274
2.51044239114
2.15019265585
1.6745478845
1.13053738541
0.586346083097
0.112721199928
-0.239532805267
-0.455159181574
-0.554411895431
-0.577952174313
-0.56555786041
-0.535248739488
-0.469494246466
-0.341961899337
-0.199281833482
0.10871339032
14.0892667217
0.324663217026
5.87596150197
2.31310581802
3.54752632839
2.93179767642
3.13782061663
3.08886620152
3.12793214147
3.13738112574
3.1467404102
3.1489878989
3.14716570672
3.14243742725
3.13621246986
3.12957581835
3.12329865983
3.11787845073
3.11345394283
3.11009835425
3.10748421885
3.10535572716
3.1033698882
3.101192172
3.09851226451
3.09575376604
3.09263457079
3.08881244518
3.08424187971
3.0783270898
3.07062703338
3.0606024119
3.04763133183
3.0320748591
3.01454183254
2.99526389816
2.97429972134
2.95175354755
2.92773248449
2.90239536934
2.87585316981
2.84830831459
2.81997211471
2.79108335769
2.76225592233
2.73399958867
2.70682043379
2.68172386346
2.65947115269
2.64082586784
2.6268000584
2.61825111974
2.616826596
2.62467562574
2.64487375526
2.68081634214
2.73498934412
2.80709638386
2.89119227949
2.97311838912
3.02885136555
3.02583817486
2.92830960101
2.70676724187
2.34949205529
1.87198978582
1.31939076355
0.758410393511
0.259525793131
-0.124491276698
-0.37395514569
-0.503368058997
-0.548177158296
-0.546365928519
-0.524614738616
-0.489369812833
-0.423267066522
-0.307342606435
-0.184185456675
0.320998285892
14.2141902054
0.384263137153
6.0435919166
2.32132943616
3.68632801013
2.99674872048
3.24436191287
3.17794742522
3.22139654018
3.22456113673
3.22933276963
3.22517910087
3.21657247654
3.20465753719
3.19115648534
3.17734259684
3.16415068159
3.15218362266
3.14165263793
3.13270248448
3.12489199501
3.11811728177
3.11194592285
3.10597132031
3.10028049925
3.09556198103
3.09119505423
3.08708769361
3.08335524892
3.07881017149
3.07268157606
3.0647085267
3.05432783625
3.04171054146
3.02754311047
3.01218205455
2.9956971866
2.97813838083
2.95954913141
2.94001774516
2.91971059689