/*--------------------------------*- C++ -*----------------------------------*\
| =========                 |                                                 |
| \\      /  F ield         | OpenFOAM: The Open Source CFD Toolbox           |
|  \\    /   O peration     | Version:  v1806                                 |
|   \\  /    A nd           | Web:      www.OpenFOAM.com                      |
|    \\/     M anipulation  |                                                 |
\*---------------------------------------------------------------------------*/
FoamFile
{
    version     2.0;
    format      ascii;
    class       volScalarField;
    location    "700";
    object      pa;
}
// * * * * * * * * * * * * * * * * * * * * * * * * * * * * * * * * * * * * * //

dimensions      [0 2 -2 0 0 0 0];


internalField   nonuniform List<scalar> 
6400
(
0.777001224983
0.704998905593
0.557632418223
0.46248286584
0.461895757126
0.536949037468
0.68815126395
0.850103476575
1.00189519471
1.14374257157
1.27319764359
1.38528303145
1.47704871495
1.54823691781
1.60003994362
1.63420355072
1.6527096636
1.65764545406
1.65107402789
1.63492414895
1.61092484651
1.58058529287
1.5451984333
1.50585949848
1.46348856012
1.41885744896
1.37261489934
1.32531230331
1.27742629347
1.22938401509
1.18159439372
1.13451841578
1.08880340781
1.0454549895
1.00494189168
0.962108993219
0.89375388723
0.792842595613
0.664507006789
0.519952055799
0.367163234645
0.210138883461
0.0508683223497
-0.10919389212
-0.268694133176
-0.426383472707
-0.58113202335
-0.73189343667
-0.877662923714
-1.01745529427
-1.15029377952
-1.27520655926
-1.39122526075
-1.49739172013
-1.59277111857
-1.67647720696
-1.74770621929
-1.80578270049
-1.8502113122
-1.88073422672
-1.89738517914
-1.90053682837
-1.89093140248
-1.8696916279
-1.83830433299
-1.79857894906
-1.75257638005
-1.7025216406
-1.65068231189
-1.59926613567
-1.55021178569
-1.50516448415
-1.46487628787
-1.42982073825
-1.39764256368
-1.36859880428
-1.33347951407
-1.30838819455
-1.26597345062
-1.32472376005
0.572448446208
0.436769410462
0.366039159994
0.333199684109
0.421230998599
0.725292543563
1.13526684466
1.63927648012
2.23362783193
2.90426179412
3.63239330444
4.39883912718
5.18655094228
5.98136808451
6.77174371179
7.54833811683
8.30374811116
9.03227680625
9.72967328131
10.3928615537
11.0196944543
11.6087489973
12.15915868
12.6704795875
13.142581731
13.5755655982
13.9696957421
14.3253527211
14.6429960311
14.9231394184
15.166332758
15.3731293163
15.5441017894
15.6802297451
15.7862319548
15.8804933484
15.997063146
16.118844002
16.2174094697
16.2823375476
16.312720494
16.3082124817
16.2676103498
16.1895076243
16.072660689
15.9160013919
15.71859556
15.4796528452
15.1985684909
14.8749693464
14.5087596427
14.1001695593
13.6498115421
13.1587432881
12.6285377308
12.0613547788
11.4600108006
10.8280355532
10.1697073341
9.49005274873
8.79480083752
8.09028130464
7.38326360015
6.68073806448
5.98964970684
5.31659961557
4.6675382767
4.04746725273
3.46018635643
2.90806378906
2.39194407405
1.9109397236
1.46281687704
1.04325183443
0.648719840953
0.271381894989
-0.0813055371641
-0.424487335451
-0.651945986227
-0.946082568044
0.428681697844
0.357471873659
0.375935168861
0.392222500894
0.465121453073
0.625776705538
0.849905781264
1.13097806526
1.45807923781
1.81402866402
2.18254458179
2.55048223606
2.90732807345
3.24497114281
3.55761587407
3.84146658166
4.09431284212
4.31516187624
4.5039348986
4.66120909561
4.78800457828
4.88561793828
4.9555000632
4.99916858517
5.01814861516
5.01393373563
4.98796410694
4.94161523839
4.87619667401
4.79295228515
4.69306886543
4.57764909613
4.44759899842
4.30259304089
4.13769473489
3.93623601546
3.70657371871
3.47521364102
3.25451261984
3.04220392307
2.83641236307
2.63808953075
2.44907354032
2.27113762587
2.10588277899
1.95472314776
1.81880097372
1.69889720754
1.59537238555
1.50813158721
1.43660127413
1.3797170377
1.33592261937
1.30318450595
1.27902323181
1.26056690558
1.24462928408
1.22781794114
1.20667254483
1.17783348183
1.13823292432
1.08529836664
1.01715063922
0.9327775728
0.832161996223
0.716346075296
0.587422812344
0.44844239356
0.303261018506
0.156276051969
0.0122107758939
-0.124475256753
-0.249511844523
-0.360932286658
-0.455885293809
-0.541196941993
-0.602502040033
-0.67414467428
-0.581142319275
-0.790823263209
0.138505712201
0.315512958528
0.266922484656
0.248601053193
0.421535484505
0.671498356472
0.954096060538
1.27822695079
1.64048375253
2.02780172994
2.43005878534
2.84052509767
3.25350245344
3.66398420785
4.0680357832
4.46279037254
4.84618507615
5.2167265196
5.57333920743
5.91525689301
6.2419339697
6.55297857108
6.84810598793
7.12710989453
7.38984410238
7.63621299645
7.86616554093
8.07969371057
8.27682798753
8.45763639861
8.62219502159
8.77059165884
8.90283142781
9.01953982628
9.12297727825
9.22000190124
9.28654499608
9.31864192261
9.32359243921
9.30186345249
9.25105512496
9.17016312443
9.05938618022
8.91922317808
8.75028638224
8.55343002572
8.32983356562
8.08101126639
7.80880306766
7.51536215782
7.20313457972
6.87482332042
6.53333796767
6.18172806505
5.82310225691
5.46053159317
5.09694159638
4.73499638346
4.37698573641
4.02472525845
3.67948575898
3.34196427373
3.01230979144
2.69020751497
2.37502156854
2.06598271517
1.76241036652
1.46393633404
1.17074634933
0.883746864824
0.60486678767
0.336935147223
0.0846013429191
-0.147638430241
-0.349887409744
-0.521869063785
-0.62941758183
-0.717713764756
-0.516542315963
-0.786136010025
-0.313743397726
0.526507195694
0.314081103292
0.320062000384
0.668995055481
1.00517176011
1.29133399004
1.58319428466
1.89050426147
2.20457565016
2.52120026283
2.83873077597
3.15450909644
3.46506731828
3.76709669724
4.05776920374
4.33468976313
4.59583244697
4.83951938564
5.0644015247
5.26942638881
5.45379937149
5.61694746583
5.75848646228
5.87819252857
5.97597646601
6.05186200357
6.1059657334
6.1384809739
6.14965835832
6.13979692802
6.10920434495
6.05820202596
5.98680009658
5.89501082049
5.78597959898
5.67284047538
5.55874607907
5.44618515666
5.33622917469
5.22838824714
5.12219357533
5.01754521575
4.91427938306
4.81193404784
4.70977719679
4.60687640004
4.50213933366
4.39435168552
4.28223400225
4.16451341844
4.04000298421
3.90768152223
3.76677080024
3.61680329206
3.45767501153
3.28967470795
3.11348347756
2.93013821293
2.74095800313
2.54743575908
2.35110539028
2.15339961115
1.95551868764
1.75833163366
1.56232580342
1.36762222452
1.17404227018
0.981260901684
0.788933400049
0.5970589989
0.405868517278
0.21716986492
0.0320764869072
-0.141064768203
-0.306218849651
-0.420014104712
-0.549554272589
-0.307016023576
-0.74348797727
-0.643598395389
1.14709637468
0.58034038
0.632791620864
1.08937258194
1.41295414475
1.64274827792
1.87431288706
2.11976862968
2.37230250782
2.63158726803
2.89841853621
3.17121890697
3.44703765578
3.72279844537
3.99569580995
4.26322535648
4.5231869096
4.77369927201
5.01319848698
5.24041477405
5.4543400708
5.65419458584
5.83939678895
6.00953695078
6.16435532889
6.30372411283
6.42763363477
6.53618155577
6.62956513136
6.70807921038
6.77212463355
6.82226729745
6.85929525778
6.8837739066
6.89028310953
6.87470489988
6.83698663718
6.77800776488
6.69872858306
6.59978484535
6.48191109949
6.34628393781
6.19442689584
6.02802339346
5.84882658319
5.6586135464
5.45912536796
5.25199768999
5.0387006234
4.82049753349
4.5984232508
4.37328355701
4.14567637449
3.91603535576
3.68469248123
3.4519551341
3.21818879104
2.98389534759
2.74977396939
2.51675294465
2.28598194933
2.05878147989
1.8365519413
1.62065709238
1.41229739021
1.21240772966
1.02157666843
0.840058429097
0.667753915173
0.504486777531
0.349679470078
0.203810630962
0.0652593905964
-0.0599957751909
-0.183771492923
-0.258593931218
-0.385200832591
-0.0497541136272
-0.659664932695
-0.992265068126
2.05291705848
0.977277038691
1.0824766629
1.54965306441
1.78274073881
1.92800590004
2.09129414324
2.27489343196
2.47130810084
2.68091665349
2.903776764
3.13735460143
3.37803535702
3.62220107241
3.86649756163
4.10785911446
4.34352639601
4.57106401405
4.78835882356
4.99360128973
5.18525890366
5.36204846938
5.52290965939
5.66698125881
5.79357999268
5.90218248983
5.99240962357
6.06401364598
6.11686678164
6.150952212
6.16635104089
6.16322404483
6.14182531427
6.10302154779
6.05162316898
5.99002199042
5.91931830244
5.84063078068
5.75485525948
5.66234006266
5.56302279614
5.45671717892
5.3432233921
5.22232340691
5.09379760912
4.95747569632
4.81328370537
4.66127044684
4.50161749266
4.33463667195
4.16075660125
3.98049948282
3.79445238205
3.60323792551
3.40749045942
3.20784273558
3.00492761734
2.79939654368
2.59195312169
2.38339641056
2.17466286842
1.96685515537
1.76124365137
1.55923624294
1.36230891407
1.17192485518
0.9894233884
0.815972921532
0.652452981032
0.499668523077
0.357820120292
0.228102970255
0.108679375925
0.00626085389095
-0.0955181873562
-0.140714027965
-0.264787926818
0.19063514997
-0.588458861856
-1.3479537994
3.20975919086
1.41753533546
1.56948342725
1.95835830559
2.06647646529
2.1349209649
2.24642921057
2.38743729401
2.54903966299
2.73047855755
2.92988117366
3.14350794483
3.36723564687
3.59719473344
3.82984621981
4.06197323253
4.29068850917
4.51343899243
4.7279971115
4.93244229158
5.12513826798
5.30470952172
5.47001881958
5.62014664667
5.75437319707
5.87216297941
5.97315201472
6.05713799029
6.12407133374
6.1740531379
6.20732153939
6.22427351045
6.22533675112
6.21092942877
6.17996832171
6.13204291387
6.06770675051
5.98793578424
5.89386079539
5.78660373846
5.66726875705
5.53700831806
5.39702224931
5.24848567624
5.09247843153
4.9299486201
4.76170026642
4.58839436602
4.41056239165
4.22863274006
4.04296638917
3.85389607539
3.66176319741
3.46694779873
3.26988834476
3.07108999401
2.87112265448
2.67061299853
2.47023524266
2.27070888635
2.07280386082
1.87735584689
1.68528066885
1.49758694862
1.31535879745
1.13973957038
0.971853716316
0.812782497991
0.663414301666
0.524660342907
0.396758613796
0.281054138606
0.175205886326
0.0867687497586
-0.004656150502
-0.0332410078711
-0.171431380387
0.403584190208
-0.545052594723
-1.69978711916
4.58716143468
1.83770583919
2.05414184581
2.30691823674
2.29485555094
2.30930790078
2.38686995635
2.50045237204
2.6406213102
2.80480810008
2.98917815591
3.18907506674
3.40008921316
3.61825050832
3.83996353203
4.06197034015
4.28134042826
4.4954606896
4.70202042955
4.89899357547
5.08461976932
5.25738543354
5.41600565536
5.55940755816
5.68671549026
5.79723808094
5.89045727045
5.96601871718
6.02372453729
6.06352601044
6.08552308856
6.08996950861
6.07735827204
6.04865486308
6.00523449951
5.94790733881
5.87745619907
5.79471724613
5.70047641271
5.59541616484
5.48014168689
5.35525045023
5.22138200122
5.07922450707
4.92949975507
4.77294584409
4.61029851983
4.44226842948
4.26951796183
4.09264416682
3.91217256563
3.72856374685
3.54223230739
3.35357531631
3.1630057528
2.97098470944
2.77804625858
2.58481183352
2.39198941785
2.20036741735
2.01079957305
1.82419694636
1.64151590173
1.46376655542
1.29198773865
1.12726417452
0.970648244624
0.823167111377
0.685638856389
0.558927367105
0.443071425306
0.339219633681
0.244193075972
0.165959486627
0.0797968907828
0.0603981485534
-0.103659382901
0.587051322096
-0.523142713424
-2.0151421252
6.15209332419
2.18646467921
2.51917532207
2.60364780539
2.4973983405
2.47956677763
2.53499700087
2.6305690353
2.75712463888
2.91008215748
3.08404771224
3.27381377613
3.47486859674
3.68327133224
3.89550453764
4.10840823087
4.31914650383
4.52518229119
4.72425647603
4.91437038098
5.09377017086
5.26093250776
5.41455134794
5.55352606043
5.67695094792
5.78410603615
5.87444933029
5.94760972889
6.00338227579
6.0417230298
6.06275082023
6.06674431173
6.05412760893
6.02536907878
5.98067490743
5.92057727266
5.84585791625
5.75745933023
5.656413296
5.54377930041
5.42060858935
5.28793373487
5.14676383815
4.99807164257
4.84277767324
4.68174046242
4.51575314288
4.34554196968
4.17176443384
3.99500771931
3.81578939712
3.63456226103
3.45172537954
3.26764169737
3.08266257642
2.89715617321
2.7115350776
2.52628234016
2.34196039802
2.1592213515
1.97879537993
1.80148952734
1.62816239066
1.45974236499
1.29717732501
1.14148921242
0.99366254545
0.854691214474
0.725298082387
0.606324687249
0.497595257297
0.399939109488
0.309405103368
0.234313592402
0.14646966817
0.126640360568
-0.0679143311027
0.734355641605
-0.526681852344
-2.27175188075
7.85118074491
2.42498411822
2.96735765387
2.86642210038
2.69933758469
2.66305197455
2.70187471661
2.78413270256
2.90056418286
3.04448928029
3.20935213329
3.38960516408
3.58070231689
3.77878402348
3.98047397811
4.18277550313
4.38300928249
4.57877159936
4.76790680581
4.9484888698
5.11880813359
5.27736084316
5.42284049145
5.55413031146
5.67029684064
5.7705838646
5.85440754518
5.92135010481
5.97115791329
6.00372867647
6.0191255865
6.01753294785
5.99944508189
5.96567099645
5.9166863154
5.85309837924
5.77563844684
5.68512095515
5.58241673784
5.46843654153
5.34412223365
5.21044451764
5.06839870113
4.91899035157
4.76321237996
4.60202065815
4.43631306979
4.26691338885
4.09456041874
3.91990328269
3.74350312642
3.5658410393
3.38733258659
3.20834622283
3.02922669466
2.85032007638
2.67199543217
2.49467319177
2.31882432385
2.14499347464
1.97378001477
1.80585442929
1.6419109122
1.48272714131
1.32907240344
1.18178298864
1.04166415666
0.909546024062
0.785770817785
0.67105741289
0.564789378028
0.466948861517
0.372985760739
0.291076525366
0.193349073472
0.154567681723
-0.0596246497135
0.845043960744
-0.580372249851
-2.45206206473
9.62267418476
2.53516174835
3.41412224279
3.10966799375
2.91291957047
2.86314930616
2.88738323995
2.95881218244
3.06669073489
3.20231292223
3.35826312339
3.52876687634
3.70929480787
3.89612690098
4.08609230337
4.27641978378
4.46464440473
4.64854988197
4.82613476259
4.99559340034
5.1553051562
5.30382811749
5.43989506234
5.56241060013
5.67044879647
5.76325063355
5.84022195188
5.90092884739
5.94509797128
5.97260091666
5.98347907076
5.97787815306
5.9563152714
5.91937232608
5.86735910741
5.80085617581
5.72061586681
5.62749345761
5.52241445722
5.40635425034
5.2803209108
5.14534262965
5.00245836177
4.85270674412
4.69711067312
4.53665877934
4.37228607526
4.20485566753
4.03514332892
3.86382758695
3.69148705909
3.51860529615
3.3455865265
3.17277454823
3.0004791848
2.82900343436
2.65865922464
2.48980749805
2.32283422247
2.15819333998
1.99636222751
1.83789872786
1.68333304313
1.53325898133
1.38834498629
1.24908775401
1.11606839091
0.98996896598
0.870119555613
0.756778544861
0.648765446348
0.544274353267
0.439014294402
0.338746152009
0.222014138078
0.138614752345
-0.0512768922575
0.91830521219
-0.719785777687
-2.54769273199
11.4032335366
2.51760432278
3.87791478011
3.34021833936
3.14140887754
3.07726934995
3.08847663319
3.1509197535
3.25106512183
3.37850820343
3.52520046611
3.68523733741
3.85418432372
4.02853544077
4.20538866921
4.38224857086
4.55690468923
4.72736080041
4.89179715083
5.0485521595
5.19611512522
5.33312442117
5.45836832343
5.57078657088
5.66947198213
5.75367117643
5.82278526878
5.87636732053
5.9141247675
5.93590259854
5.94171598455
5.9316667786
5.90632407246
5.86626802918
5.81179345615
5.74343135833
5.66188000309
5.56793175828
5.46244944854
5.34636128348
5.22065179112
5.08634800753
4.94450449032
4.79618693742
4.64245313053
4.48433168975
4.32280002568
4.15876359989
3.99303740355
3.82633302684
3.65925274498
3.49228916205
3.32584211621
3.16023437325
2.99574065659
2.83261953245
2.67111702054
2.51153383519
2.35415810742
2.19936233582
2.04748816128
1.89897797875
1.75425681551
1.61356601777
1.47783250704
1.34687761944
1.22074922676
1.10034131943
0.983707858911
0.869467567919
0.755139553057
0.636993178706
0.511322615533
0.380871227581
0.23285807895
0.0915286238637
-0.0121408849322
0.891042734645
-0.92157323583
-2.55720057021
13.1363340519
2.38894533887
4.37376214514
3.55746289594
3.38322190927
3.30066766649
3.30135112343
3.35639003934
3.44931714082
3.56849500537
3.7054083098
3.85414615255
4.01047659568
4.17119267817
4.33372229974
4.49588774424
4.65576162832
4.81158832393
4.96174551727
5.10472908436
5.23915040589
5.36373976015
5.47735193274
5.57897224997
5.66772178515
5.74286146205
5.8037950952
5.85007015246
5.8813811707
5.8975596713
5.89860184601
5.88460658131
5.85612321299
5.81361699791
5.75733648699
5.68778251036
5.60563434306
5.51166172064
5.40669801284
5.29163973763
5.16744235055
5.0351095772
4.8956807045
4.750216106
4.59977921641
4.44541469467
4.28812376337
4.12884055728
3.96840938157
3.80756852113
3.64694222179
3.4870316449
3.32823648388
3.1708627948
3.01515672856
2.86134257866
2.70960091346
2.5601972487
2.4133196017
2.26927524102
2.12830729259
1.99068655402
1.8570630691
1.72669379092
1.60122177561
1.48048632419
1.36292213368
1.24922974721
1.13607933333
1.01933608471
0.893643593823
0.753917962872
0.598088557415
0.428511408494
0.240043476618
0.0556620728948
0.0491135579726
0.707740879496
-1.1354592533
-2.48516185466
14.7763115287
2.17589465952
4.90909198402
3.75594949905
3.63567692036
3.52881436023
3.522718422
3.57160218874
3.65770724291
3.76847669562
3.89506204804
4.03170327184
4.17448844709
4.32059100865
4.46782077794
4.61434782139
4.75854431756
4.89890402983
5.03400726118
5.16251100618
5.28315226494
5.39475678297
5.49624957736
5.58666505247
5.66515562419
5.73099897508
5.78360310098
5.82251081254
5.84740305263
5.85809921692
5.85458375668
5.83698438497
5.80583169243
5.76146737104
5.7041207328
5.63425893374
5.55251531059
5.45960854441
5.35632214371
5.24350705389
5.12207866657
4.99300689048
4.85730440521
4.71601372859
4.57019060814
4.42088312685
4.26910512315
4.11581150622
3.9618706329
3.80804513164
3.65498449046
3.50319962166
3.35309760681
3.20497278357
3.05904813293
2.91553244633
2.77455384563
2.63635676321
2.50107519258
2.36896545384
2.240383748
2.11498216702
1.99434757858
1.87775583685
1.76559640878
1.65832982646
1.55338521887
1.44901566037
1.33951690986
1.21774641003
1.07576667203
0.908723098046
0.718293228145
0.509743853239
0.282311362907
0.0708061868371
0.0793199420802
0.346718380616
-1.29693120177
-2.33995933322
16.2900946291
1.90960098295
5.48287792458
3.92881089111
3.89690077895
3.75779676423
3.74973251386
3.7932195635
3.87288895883
3.97511952324
4.09089473833
4.21478081936
4.34329295945
4.47405482573
4.60529793797
4.7355593363
4.86351811015
4.98791921761
5.10754493351
5.22121245751
5.32778380576
5.42618019051
5.51539717922
5.59451888662
5.66272955723
5.71932427816
5.76371485696
5.79544059066
5.81416159312
5.81968880005
5.81193713289
5.79115408876
5.75791057369
5.71228238194
5.65452743288
5.58511023561
5.504618048
5.41371009115
5.31311117739
5.20361619081
5.08608742471
4.96144633272
4.83066407937
4.69475087827
4.55474106401
4.4116745041
4.2665672393
4.12038865465
3.97402770837
3.82827012283
3.68379918075
3.54113972313
3.40071802655
3.26282709209
3.12768661926
2.99548160244
2.86637129389
2.74056981794
2.61834708113
2.49959692778
2.38566038371
2.27621445441
2.17199412981
2.07340945734
1.97990269842
1.89095179741
1.80304565426
1.71105943011
1.60590775022
1.4776380068
1.31792676152
1.12489678772
0.90427236583
0.659448941772
0.38293929305
0.111902772084
-0.00255665254641
-0.133964992297
-1.33256061282
-2.13212752641
17.6566525401
1.62080810866
6.0867488855
4.07052117878
4.16617436047
3.98409825064
3.97989821115
4.01817978401
4.09188573538
4.18549032973
4.29009637947
4.4007579191
4.51450267098
4.62945930676
4.74430818889
4.85796320222
4.96941198213
5.07764861329
5.18165415193
5.28040278717
5.37287885512
5.45809652373
5.53511990886
5.60308101964
5.66119456301
5.70877173478
5.74522775589
5.77009745077
5.78302147135
5.78380141784
5.77229587375
5.74887820433
5.71410425342
5.66784637513
5.61035789244
5.54210767519
5.46364789005
5.37558239899
5.27857668685
5.17336521937
5.06074884047
4.9415890492
4.81680209729
4.68735228795
4.55423890338
4.41848333137
4.28109402683
4.1430506176
4.00526091649
3.8685344782
3.73360011444
3.60100124917
3.4712079691
3.34450270574
3.22118096591
3.10131528871
2.98544260288
2.87336103592
2.76636727688
2.66449694908
2.56828518553
2.47862809401
2.39583942174
2.32058540253
2.25210807255
2.18811481675
2.12245490223
2.04585187651
1.94601565686
1.8116306759
1.63547596949
1.41665186944
1.15616190739
0.844394866444
0.468534973609
0.0791552208616
-0.216986199042
-0.569114943943
-1.22233432464
-1.8729196532
18.8653808427
1.33664624554
6.70729332623
4.17854961613
4.44336152305
4.20433299099
4.21102183084
4.24365097067
4.31201664026
4.3969517215
4.49018167593
4.58735417456
4.68607179055
4.78500812651
4.88330778315
4.98026533219
5.07517589768
5.16727990428
5.25575352406
5.33972443688
5.41829547994
5.49056983249
5.55567642529
5.61279181659
5.66115837528
5.70010121341
5.7290384731
5.74750019782
5.75511453879
5.75167580307
5.73701954889
5.71162096762
5.67591634463
5.62968286812
5.57313913961
5.50674960591
5.43104163588
5.34657414464
5.25395970617
5.15387496894
5.04705749591
4.93430245103
4.81646085816
4.69443911185
4.56918747116
4.44169980189
4.31296628225
4.1839752156
4.05565400133
3.92883592079
3.80431712796
3.68266131669
3.56442782905
3.44981912271
3.33955074751
3.23309565054
3.13228620714
3.03714598349
2.94782098862
2.86566396992
2.79114202534
2.72586779696
2.67079785743
2.62642230761
2.59056571021
2.55765442305
2.51705756387
2.45461170254
2.35453053018
2.2030274506
1.98988367509
1.70795152841
1.34975661781
0.908737259429
0.408156047913
-0.060684750196
-0.419211444295
-0.741657597391
-1.00721217344
-1.5733991385
19.9139517338
1.07887799778
7.32859239831
4.25384010209
4.72805091108
4.41523648602
4.44123710655
4.4670153437
4.53086928777
4.60711909886
4.68892991254
4.77254580754
4.85619270881
4.93911452497
5.02092640705
5.10130416828
5.17984937859
5.25604654857
5.32926401499
5.39877930301
5.46380889364
5.52353925092
5.57715893477
5.62388412816
5.662981013
5.69378548175
5.71571769094
5.72830326413
5.73116767911
5.72409959143
5.70694503322
5.68020177281
5.64416504592
5.59858021743
5.54364340968
5.47980629775
5.40756690373
5.32743783544
5.23997792559
5.14580614699
5.0455967376
4.940077094
4.83002806175
4.71629202855
4.59975766643
4.48138712014
4.36214260145
4.24301974596
4.12497048761
4.00886829599
3.89558367006
3.78569739096
3.68006053322
3.57846121619
3.48266050635
3.39251869369
3.30872864406
3.23226709313
3.16338020236
3.10421967033
3.056409276
3.022284234
3.00278873606
2.99675622863
2.998181441
2.99548802142
2.97079238776
2.90238670689
2.76742643923
2.54527280721
2.22020061336
1.78567149528
1.2516288068
0.658328394697
0.0932364318428
-0.335702676121
-0.605392959808
-0.7837968683
-0.874607122291
-1.24384763116
20.8061721061
0.863340743626
7.93447018779
4.30042934661
5.01886067212
4.61388816545
4.66899193641
4.68583968449
4.74627640246
4.81382499001
4.88433757949
4.9545043754
5.02322596741
5.09032747493
5.1558944728
5.21998403147
5.28250399771
5.34318175348
5.40157515358
5.4571074005
5.50910160277
5.55681992661
5.5995039276
5.63640343902
5.66680396615
5.69004807138
5.70555574652
5.71284627931
5.71154942702
5.70145697902
5.68248277936
5.65505203763
5.61930421331
5.57499637743
5.52231893538
5.46170497692
5.39362032141
5.31853331715
5.23694886969
5.14942565178
5.05657105626
4.9590424398
4.8575454931
4.75285683037
4.64579416604
4.53728710725
4.42826204986
4.31973393774
4.2126627567
4.1080193828
4.00678686318
3.90953988928
3.81762792943
3.73141016625
3.65185777095
3.57917633767
3.51406648158
3.45816066399
3.41312062493
3.38211695671
3.36771541156
3.372083244
3.39411295014
3.42777647779
3.45913984397
3.4660888016
3.41901979454
3.28498410104
3.03284656499
2.64072328479
2.10557019121
1.45453779261
0.752611701663
0.0989051610371
-0.399721426855
-0.690124774461
-0.825163686791
-0.882285507389
-0.908130745999
-0.893484150533
21.5500450651
0.700189891106
8.510167565
4.3245679492
5.31309934534
4.79802411087
4.89295604789
4.89786246823
4.95630767763
5.01509951456
5.0745938729
5.131565094
5.18566692689
5.23729928495
5.28701524116
5.33525354441
5.38222920354
5.42791124708
5.47204424522
5.51419090808
5.55377103996
5.59011314179
5.62250453928
5.65022245868
5.67256773663
5.68888512728
5.69859257181
5.70119390952
5.69632321308
5.68374799496
5.66351513619
5.63604195767
5.60121238068
5.55884844045
5.50913998847
5.45246799378
5.38924486331
5.31989468556
5.24487408942
5.16468618392
5.07987090321
4.99101538738
4.89874624298
4.80377507852
4.70683533753
4.60883957972
4.5106676059
4.41338035575
4.31788577918
4.225543454
4.13722634839
4.05439751791
3.97807518002
3.90812758952
3.84565855778
3.79132825691
3.74684654204
3.71494261843
3.69870557135
3.70202798798
3.72718338962
3.77369623447
3.83452091279
3.89371809794
3.92413759479
3.88899329503
3.74610453997
3.4567783082
2.99717464031
2.37186757568
1.62531345499
0.843925967485
0.139329515208
-0.38897595561
-0.699360952682
-0.831317513284
-0.86286865641
-0.823889631569
-0.711260216079
-0.530345767548
22.1561908671
0.594614123972
9.04339237602
4.33367969119
5.60679654767
4.96629372078
5.11186421494
5.10101425267
5.15926157197
5.20915619106
5.25806574061
5.30220928694
5.34213004731
5.37877355966
5.41315789599
5.44610458931
5.47813633531
5.50946175971
5.54000809461
5.56946813248
5.59734488996
5.62302340927
5.64582977726
5.66506343281
5.68003773791
5.69009737731
5.69465839204
5.69320283976
5.68537520308
5.67083506681
5.64989127561
5.62301976775
5.58972543801
5.549936221
5.50387154168
5.45184480956
5.39418758139
5.33126400121
5.26347471786
5.19126856505
5.11511975203
5.03554842294
4.95309285832
4.86841331336
4.78215758171
4.69521518589
4.6084176207
4.52307306705
4.43972786293
4.36088857971
4.28748557172
4.21990949832
4.15952684553
4.10630699917
4.06182787499
4.02779284259
4.00715573628
4.00380966653
4.02168463314
4.06400398637
4.12999387707
4.21226854266
4.29256852994
4.34006475738
4.3119211243
4.1595717761
3.83945125051
3.32823400361
2.63793532026
1.82579817389
0.99057194393
0.249340720751
-0.302359165126
-0.629931131318
-0.772686166682
-0.808330214166
-0.77981506275
-0.670662824076
-0.495942105533
-0.161314004167
22.636603594
0.547762668477
9.5248055729
4.33539456919
5.89500926228
5.1183731823
5.32435118612
5.29347460975
5.35364831918
5.3943841585
5.43329081535
5.4650568421
5.49134543121
5.51358548923
5.53326254854
5.55158098911
5.56937013148
5.58707426144
5.60479752494
5.6223484459
5.63929730313
5.65507723219
5.66904729251
5.68052554194
5.68883633624
5.69332492855
5.69340650213
5.68855961964
5.67843133908
5.66267899857
5.64174809149
5.61601622699
5.58486820307
5.54824128166
5.50638764097
5.45958728866
5.40809842523
5.35221622263
5.29226695253
5.2286340571
5.16171049274
5.09195795958
5.0198274752
4.94590445821
4.87077993872
4.79539094419
4.72045046158
4.64774946644
4.57833884412
4.51392972131
4.45559471088
4.40364240285
4.35951370448
4.32396575412
4.29933882925
4.28852967079
4.29564556862
4.32520375424
4.38043093088
4.46103307927
4.55890911713
4.65474512662
4.7149392663
4.69308581424
4.5363005001
4.19829614304
3.65603164517
2.92603941925
2.0723267766
1.19900377513
0.423958694881
-0.159758447656
-0.517533875975
-0.681751331362
-0.726580652174
-0.716887016071
-0.661851042234
-0.533040497881
-0.370075035309
0.207811926637
23.0037447023
0.557710921997
9.94807620702
4.33679008957
6.17227852942
5.25491608418
5.5288335539
5.47374652869
5.5381573906
5.56934758614
5.59897253132
5.61886359485
5.63216044376
5.640667079
5.64634875865
5.6507893626
5.65512063783
5.66001697151
5.66575102248
5.67222714564
5.67906695456
5.68574686897
5.69165439628
5.69612412585
5.6984896994
5.69809767255
5.69437050344
5.68680031042
5.67504961882
5.65881547667
5.63859136666
5.61461320295
5.58624807998
5.55340877202
5.51634610634
5.47531684569
5.4305268037
5.38221821686
5.33062855704
5.27607758511
5.21886953086
5.15937481887
5.09797808289
5.03516761397
4.97166736398
4.90823598862
4.84630391186
4.78725880893
4.73202360888
4.68229953787
4.63909078848
4.60321738473
4.57636323513
4.56016837696
4.55789927274
4.57356625596
4.61183792807
4.67634182629
4.76677425432
4.87529407413
4.98194320444
5.05224040547
5.03780770845
4.88362936968
4.54131283534
3.9870634399
3.23791964857
2.35913678757
1.45515730592
0.642934057713
0.0150332802181
-0.390609641335
-0.597418690532
-0.669287001436
-0.674488444021
-0.651038517121
-0.590256232481
-0.46693418909
-0.326918465773
0.572156807268
23.2698827005
0.620366918597
10.309645693
4.34389958954
6.43312150884
5.37737062475
5.7234715993
5.64071885582
5.71161377544
5.73279251257
5.75397439084
5.76252121186
5.76354349724
5.75905350968
5.7515244237
5.74290875992
5.73463336522
5.72759589237
5.72222557533
5.71849724458
5.71607217626
5.71446937847
5.71310084606
5.71131592805
5.70845251743
5.7038593504
5.69697251879
5.68732144861
5.67461637998
5.65864478476
5.63976814111
5.6181424308
5.59316982881
5.5647390466
5.53307086842
5.49837936696
5.46080260895
5.4205563672
5.37779716031
5.33275215058
5.2856479231
5.23674015214
5.18656356116
5.13506869242
5.08385339386
5.03344607996
4.98460520202
4.93922968493
4.89827052358
4.86348854002
4.83602904804
4.81719322745
4.80907990944
4.81429849651
4.83700134491
4.88173231242
4.95225898749
5.04869127445
5.16347990665
5.27728936297
5.35575139808
5.35045738107
5.20543792393
4.87082111249
4.32052485138
3.56894344116
2.6781849363
1.74967244816
0.898649894452
0.219497288665
-0.243238051656
-0.502809748595
-0.613134971922
-0.638335156318
-0.62674603931
-0.596777950579
-0.535318993817
-0.423591364354
-0.303054574621
0.927601039798
23.4466699251
0.730288781017
10.6083379269
4.3614748919
6.67246423923
5.48770775581
5.90621051077
5.79368997081
5.87293382624
5.88365895679
5.89731120396
5.89505918566
5.88458759201
5.86788916507
5.84799306991
5.82719820135
5.80721685105
5.78916261348
5.77360403869
5.7605582183
5.74972258489
5.74066049048
5.7328042692
5.72551539732
5.71812679772
5.70998900114
5.70055286327
5.68942183454
5.67634092427
5.66121784267
5.64437964605
5.62579797312
5.60490435367
5.58152678681
5.55583285153
5.52801010035
5.49814198854
5.46638973381
5.43284283211
5.39764220938
5.36109805685
5.32292768167
5.2843331777
5.24520017331
5.20621241652
5.16856574957
5.13295817524
5.10136615363
5.07505980144
5.05585219899
5.04506689219
5.04447700864
5.05676103875
5.08543285132
5.13501779055
5.20923013244
5.30854495547
5.42625838874
5.54412007629
5.62925942998
5.63432116635