/*--------------------------------*- C++ -*----------------------------------*\
| =========                 |                                                 |
| \\      /  F ield         | OpenFOAM: The Open Source CFD Toolbox           |
|  \\    /   O peration     | Version:  v1806                                 |
|   \\  /    A nd           | Web:      www.OpenFOAM.com                      |
|    \\/     M anipulation  |                                                 |
\*---------------------------------------------------------------------------*/
FoamFile
{
    version     2.0;
    format      ascii;
    class       surfaceScalarField;
    location    "700";
    object      phi;
}
// * * * * * * * * * * * * * * * * * * * * * * * * * * * * * * * * * * * * * //

dimensions      [0 3 -1 0 0 0 0];
oriented        oriented;


internalField   nonuniform List<scalar> 
12640
(
2.36655647925e-05
-2.36655648278e-05
3.41775884084e-05
-1.05120240475e-05
3.71388600371e-05
-2.96127208533e-06
2.76744120306e-05
9.46444762221e-06
5.68027680434e-06
2.1994134778e-05
-2.67220876628e-05
3.24023638996e-05
-5.91213412438e-05
3.23992530564e-05
-9.07966746476e-05
3.16753328883e-05
-0.000121889505027
3.10928298767e-05
-0.000152128373117
3.02388675996e-05
-0.000181221361551
2.90929879653e-05
-0.000208942554633
2.77211926327e-05
-0.000235139427981
2.61968729218e-05
-0.000259724678144
2.4585249755e-05
-0.000282664052363
2.29393738286e-05
-0.000303964027466
2.12999747261e-05
-0.000323660704826
1.96966769946e-05
-0.000341810418752
1.81497135691e-05
-0.000358482157965
1.66717388626e-05
-0.000373751696665
1.52695383532e-05
-0.000387697229355
1.39455323457e-05
-0.000400396263069
1.26990333697e-05
-0.000411923518209
1.15272547938e-05
-0.00042234960958
1.04260910218e-05
-0.000431740310329
9.39070039427e-06
-0.000440156236333
8.41592564374e-06
-0.000447652821328
7.4965846254e-06
-0.000454280481891
6.62766018493e-06
-0.000460084894679
5.80441239617e-06
-0.000465107325454
5.02243037355e-06
-0.000469384962865
4.27763699351e-06
-0.000472951226339
3.56626304459e-06
-0.000475835996281
2.88476949346e-06
-0.000478065583087
2.22958634316e-06
-0.000479662362605
1.59677903424e-06
-0.000480644866877
9.82503777458e-07
-0.000481026505783
3.81638392517e-07
-0.000480816584378
-2.09921923906e-07
-0.000480023056871
-7.93528041494e-07
-0.000478657377064
-1.36568034412e-06
-0.000476735304332
-1.92207328307e-06
-0.000474272319288
-2.46298559599e-06
-0.00047128237622
-2.98994363455e-06
-0.000467777473771
-3.50490301277e-06
-0.000463767530531
-4.00994381889e-06
-0.000459260372282
-4.50715882386e-06
-0.000454261772547
-4.99860032506e-06
-0.000448775534714
-5.4862384193e-06
-0.000442803620965
-5.9719143502e-06
-0.000436346338077
-6.45728348445e-06
-0.000429402589971
-6.94374871938e-06
-0.000421970203138
-7.43238744105e-06
-0.000414046325291
-7.92387847262e-06
-0.000405627889423
-8.4184364893e-06
-0.000396712126233
-8.91576382866e-06
-0.000387297097267
-9.41502960067e-06
-0.000377382210747
-9.91488717225e-06
-0.000366968671946
-1.04135394486e-05
-0.000356059811834
-1.09088607772e-05
-0.000344661231048
-1.13985814466e-05
-0.000332780692265
-1.188053946e-05
-0.000320427692619
-1.23530003159e-05
-0.000307612649587
-1.28150437191e-05
-0.000294345638242
-1.32670120226e-05
-0.000280634627168
-1.37110117658e-05
-0.000266483169219
-1.41514586301e-05
-0.000251887514948
-1.45956549651e-05
-0.000236833151895
-1.50543637348e-05
-0.000221290826288
-1.55423262988e-05
-0.000205212167797
-1.60786591727e-05
-0.000188525260557
-1.66869079299e-05
-0.000171130710121
-1.73945511248e-05
-0.000152899205567
-1.82315052523e-05
-0.000133674125399
-1.92250808817e-05
-0.000113288977977
-2.03851481606e-05
-9.16115683435e-05
-2.16774104038e-05
-6.86046405773e-05
-2.300692851e-05
-4.440475822e-05
-2.41998831749e-05
-1.98921521424e-05
-2.45126072842e-05
-1.9892152843e-05
1.24657058012e-05
-3.6131273294e-05
1.0490030564e-05
-8.53635024457e-06
-9.56133907611e-06
1.70900970651e-05
-3.87811573867e-05
3.86842657007e-05
-6.68651409361e-05
5.00781180584e-05
-9.38336046997e-05
5.93708273272e-05
-0.000123831746177
6.23973941644e-05
-0.000154918120105
6.2761706419e-05
-0.000185739397988
6.19141073626e-05
-0.000215663628923
6.01630981295e-05
-0.000244311828691
5.77411873415e-05
-0.000271438305245
5.48476687923e-05
-0.000296894128616
5.16526959158e-05
-0.000320604479016
4.82955997758e-05
-0.000342550718378
4.48856128295e-05
-0.000362755353338
4.15046093197e-05
-0.000381269561173
3.82108844808e-05
-0.000398163138776
3.50432908125e-05
-0.000413516677144
3.20252768885e-05
-0.000427415690294
2.91685511448e-05
-0.000439946386023
2.64762277334e-05
-0.000451192762223
2.39454092063e-05
-0.000461234734286
2.15692265092e-05
-0.00047014703816
1.93383945231e-05
-0.000477998696654
1.72423585295e-05
-0.000484852880688
1.52701092891e-05
-0.000490767035032
1.34107385939e-05
-0.000495793170707
1.16537954492e-05
-0.000499978251243
9.98949253343e-06
-0.000503364623353
8.40880204559e-06
-0.00050599046021
6.90347342361e-06
-0.000507890188314
5.46599067757e-06
-0.000509094868784
4.08944950378e-06
-0.000509632408714
2.76712576541e-06
-0.000509526972586
1.49134241122e-06
-0.000508798221908
2.53752555897e-07
-0.000507473182887
-9.43401149974e-07
-0.000505589150395
-2.09395498281e-06
-0.000503181323178
-3.2013557993e-06
-0.000500274630151
-4.2723739573e-06
-0.000496883965829
-5.31273816075e-06
-0.00049302048855
-6.3264634765e-06
-0.00048869319209
-7.3172406641e-06
-0.000483909395423
-8.28870029444e-06
-0.000478674865611
-9.24447421127e-06
-0.000472993835616
-1.0188189447e-05
-0.000466869006004
-1.11234305279e-05
-0.000460301569374
-1.2053675688e-05
-0.000453291278153
-1.2982206173e-05
-0.000445836572192
-1.39119900955e-05
-0.000437934777087
-1.48455444383e-05
-0.000429582381544
-1.57847836475e-05
-0.00042077539442
-1.67308662218e-05
-0.000411509776136
-1.76840554507e-05
-0.000401781928128
-1.86436124767e-05
-0.000391589215614
-1.96077428064e-05
-0.00038093048659
-2.0573616852e-05
-0.00036980654194
-2.15374848037e-05
-0.000358220501715
-2.24949016722e-05
-0.000346178008729
-2.34410751514e-05
-0.000333687205018
-2.43713438539e-05
-0.000320758418564
-2.52817874974e-05
-0.000307403499627
-2.61699633468e-05
-0.000293634752972
-2.70357594087e-05
-0.00027946342398
-2.78823414524e-05
-0.000264897711623
-2.87171717146e-05
-0.000249940286134
-2.95530811441e-05
-0.000234585315524
-3.04093350616e-05
-0.000218815101377
-3.13125411262e-05
-0.000202596344303
-3.22974169453e-05
-0.000185876256779
-3.34069961222e-05
-0.000168579054082
-3.46917544975e-05
-0.000150603663588
-3.62068964042e-05
-0.000131824551541
-3.80041935916e-05
-0.000112098333749
-4.01113666103e-05
-9.12791604399e-05
-4.24965843621e-05
-6.92656094771e-05
-4.50204801198e-05
-4.61907396582e-05
-4.72747536076e-05
-2.28447512163e-05
-4.78585964276e-05
-4.27369045502e-05
-9.39830350153e-06
-2.67329676793e-05
-3.17474793008e-05
1.38128259285e-05
-5.71212042772e-05
4.24638221449e-05
-8.14333712018e-05
6.29964325605e-05
-0.000108277766481
7.69225131466e-05
-0.000134893455874
8.59865164664e-05
-0.000162508929906
9.00128679097e-05
-0.000190553222202
9.08059984162e-05
-0.000218150660283
8.95115451336e-05
-0.000244735875847
8.67483133792e-05
-0.000269965905681
8.29712168554e-05
-0.000293643950303
7.85257130954e-05
-0.000315673474621
7.36822199088e-05
-0.000336028144549
6.86502693818e-05
-0.000354730195418
6.3587663372e-05
-0.000371834064427
5.86084780054e-05
-0.000387413959783
5.37907795062e-05
-0.000401554620312
4.91839510141e-05
-0.000414344684298
4.48153405393e-05
-0.000425872142215
4.06960087276e-05
-0.000436221396584
3.68254817577e-05
-0.000445471514871
3.31955271484e-05
-0.000453695334398
2.9793045679e-05
-0.000460959151323
2.66022110898e-05
-0.000467322792517
2.36059993501e-05
-0.000472839924821
2.07872412157e-05
-0.000477558499236
1.81293126118e-05
-0.000481521258948
1.56165547594e-05
-0.000484766264855
1.3234498016e-05
-0.000487327420847
1.09699576058e-05
-0.000489234996769
8.81104888798e-06
-0.000490516092942
6.74708638445e-06
-0.000491194886508
4.76824257403e-06
-0.000491292875272
2.86511402234e-06
-0.000490830589985
1.02905659078e-06
-0.000489830909841
-7.45928123497e-07
-0.00048831764612
-2.45666542946e-06
-0.00048630693807
-4.10466358793e-06
-0.00048380899457
-5.69929987464e-06
-0.000480834814826
-7.24655427354e-06
-0.00047739531689
-8.75223668766e-06
-0.000473500204265
-1.02215766862e-05
-0.000469157818033
-1.16596275017e-05
-0.000464375102197
-1.3071416727e-05
-0.000459157569384
-1.4462007641e-05
-0.000453509259132
-1.5836500307e-05
-0.000447432705519
-1.71999847698e-05
-0.000440928933399
-1.8557448427e-05
-0.000433997502087
-1.99136381259e-05
-0.000426636613499
-2.12728793162e-05
-0.000418843299669
-2.26388589223e-05
-0.000410613700222
-2.40143837408e-05
-0.00040194343459
-2.54011325232e-05
-0.000392828065222
-2.67994254824e-05
-0.000383263638199
-2.8208040187e-05
-0.000373247276027
-2.96241056601e-05
-0.000362777785988
-3.10431075967e-05
-0.000351856235971
-3.24590355217e-05
-0.000340486441191
-3.38646971758e-05
-0.000328675300417
-3.52522166433e-05
-0.000316432915815
-3.66137291938e-05
-0.000303772430594
-3.79422734465e-05
-0.000290709528328
-3.92328663579e-05
-0.000277261538116
-4.04837503511e-05
-0.000263446112681
-4.16977676289e-05
-0.00024927946338
-4.28838217381e-05
-0.000234774156484
-4.40583887671e-05
-0.000219936392974
-4.52470992761e-05
-0.000204763052616
-4.64858821873e-05
-0.000189238319311
-4.78221509299e-05
-0.000173329949033
-4.93153670692e-05
-0.000156985840521
-5.1035863656e-05
-0.000140131052982
-5.30616845732e-05
-0.000122665220871
-5.54700263158e-05
-0.00010446082119
-5.83157668892e-05
-8.53687044923e-05
-6.15887016463e-05
-6.5252516913e-05
-6.51366682244e-05
-4.40702673853e-05
-6.84570036528e-05
-2.20920787662e-05
-6.98367856823e-05
-6.48289836109e-05
-2.8056093698e-05
1.32312293085e-06
-5.55641796766e-05
4.13209116408e-05
-8.12510854597e-05
6.81507279064e-05
-0.000106770673956
8.85160209608e-05
-0.000132543691608
0.000102695530635
-0.000158034750967
0.000111477575624
-0.000183404937014
0.00011538305374
-0.000208374415569
0.000115775476741
-0.000232525672425
0.000113662801753
-0.000255543351364
0.000109765992072
-0.000277227365178
0.000104655230417
-0.00029747559401
9.87739416647e-05
-0.000316258079384
9.24647050147e-05
-0.000333593899813
8.59860895351e-05
-0.000349532949061
7.95267123385e-05
-0.000364142404932
7.32179335861e-05
-0.000377497187493
6.7145561774e-05
-0.000389673609276
6.13603724937e-05
-0.000400745445619
5.58871765756e-05
-0.00041078174074
5.0732303532e-05
-0.00041984578782
4.5889528516e-05
-0.000427994854459
4.13445934542e-05
-0.000435280347729
3.70785386111e-05
-0.000441748214172
3.30700771808e-05
-0.000447439445943
2.92972307623e-05
-0.000452390617537
2.57384124349e-05
-0.000456634411615
2.23731063055e-05
-0.000460200112312
1.91822550525e-05
-0.000463114055919
1.61484412075e-05
-0.000465400048611
1.32559498599e-05
-0.000467079776509
1.04907763342e-05
-0.000468173163242
7.84047264122e-06
-0.000468698434
5.29351283874e-06
-0.000468672022806
2.83870230945e-06
-0.00046811056617
4.67599422755e-07
-0.000467036161149
-1.82033369164e-06
-0.000465466288751
-4.02653837757e-06
-0.000463411458265
-6.15949463912e-06
-0.000460884057827
-8.22670087745e-06
-0.000457895564351
-1.02350483301e-05
-0.000454456646228
-1.21911553899e-05
-0.000450576857099
-1.41013664083e-05
-0.000446264538894
-1.59719462993e-05
-0.000441526744318
-1.78092119086e-05
-0.000436369153109
-1.96195994538e-05
-0.000430795985295
-2.14096687389e-05
-0.000424809926128
-2.31860445539e-05
-0.000418412081667
-2.4955293519e-05
-0.000411601985276
-2.67237351477e-05
-0.000404377675858
-2.8497189382e-05
-0.000396735866961
-3.02806684664e-05
-0.000388672222693
-3.20780286745e-05
-0.000380181749816
-3.38916060692e-05
-0.000371259306516
-3.57218694701e-05
-0.000361900216503
-3.75671308924e-05
-0.000352100963875
-3.94233590011e-05
-0.000341859930332
-4.12841418574e-05
-0.000331178123287
-4.31408433047e-05
-0.000320059831157
-4.49829900466e-05
-0.0003085131418
-4.6798906759e-05
-0.000296550253756
-4.85766179955e-05
-0.000284187501873
-5.03050260978e-05
-0.000271445052379
-5.19753166137e-05
-0.000258346193533
-5.35826099628e-05
-0.000244916209707
-5.51277522069e-05
-0.000231180790014
-5.66192421811e-05
-0.000217164144152
-5.80750353589e-05
-0.000202886337789
-5.95249063602e-05
-0.00018836074122
-6.10114794542e-05
-0.000173591000222
-6.25918926087e-05
-0.000158567172695
-6.43391952544e-05
-0.000143262387766
-6.63406492185e-05
-0.000127629288514
-6.86947844327e-05
-0.000111594485688
-7.15048297238e-05
-9.50508927254e-05
-7.48593604078e-05
-7.7853999158e-05
-7.87855957349e-05
-5.98347197843e-05
-8.31559481112e-05
-4.07779407556e-05
-8.75137831475e-05
-2.06271343384e-05
-8.99875925251e-05
-8.54561182109e-05
-3.64467762718e-05
3.77699021507e-05
-6.56371896892e-05
7.05113254901e-05
-9.3165280672e-05
9.56788189021e-05
-0.000119481675602
0.000114832415779
-0.00014472206643
0.000127935921304
-0.000168902104214
0.000135657613235
-0.000192194403826
0.000138675353173
-0.000214527444428
0.000138108517161
-0.000235759544535
0.000134894901672
-0.000255785580113
0.000129792027456
-0.000274549826291
0.000123419476391
-0.000292043463366
0.000116267578528
-0.000308292448087
0.000108713689514
-0.000323344246259
0.000101037887476
-0.000337256877565
9.34393434033e-05
-0.000350091222874
8.6052278645e-05
-0.000361906337705
7.89606763449e-05
-0.000372757060806
7.22110953257e-05
-0.000382693150768
6.58232662589e-05
-0.000391759309138
5.9798461614e-05
-0.000399995631111
5.41258501902e-05
-0.000407438197275
4.87871593104e-05
-0.000414119652732
4.37599937479e-05
-0.000420069708949
3.90201330676e-05
-0.00042531555497
3.45430764388e-05
-0.000429882188728
3.03050458359e-05
-0.000433792687998
2.6283605201e-05
-0.000437068441342
2.24580080072e-05
-0.000439729357674
1.8809357129e-05
-0.00044179406273
1.53206544878e-05
-0.000443280093149
1.19768063035e-05
-0.000444204096257
8.76447527874e-06
-0.000444581982091
5.67139817358e-06
-0.000444428860536
2.68558023597e-06
-0.000443759297945
-2.0196370213e-07
-0.000442593316521
-2.9863156561e-06
-0.000440948486261
-5.67136918831e-06
-0.000438835211377
-8.27277007848e-06
-0.000436264933841
-1.07969789785e-05
-0.000433248688372
-1.32512943678e-05
-0.000429796916686
-1.56429276545e-05
-0.000425919224996
-1.79790586793e-05
-0.000421624215957
-2.02669559293e-05
-0.000416919338203
-2.2514090257e-05
-0.000411810736409
-2.47282018529e-05
-0.000406303102432
-2.69173033236e-05
-0.00040039953957
-2.90896080353e-05
-0.000394101458679
-3.12533750346e-05
-0.00038740852937
-3.34166650953e-05
-0.000380318711726
-3.5587007671e-05
-0.000372828394164
-3.77709866885e-05
-0.000364932660358
-3.9973763151e-05
-0.000356625701866
-4.21985652504e-05
-0.000347901382234
-4.4446189804e-05
-0.000338753944883
-4.67145689655e-05
-0.000329178840067
-4.89984645524e-05
-0.000319173628984
-5.12893536961e-05
-0.000308738909179
-5.35755638768e-05
-0.000297879182575
-5.58427174336e-05
-0.000286603595405
-5.80744947182e-05
-0.000274926486761
-6.02537274365e-05
-0.000262867613258
-6.23639003962e-05
-0.000250452065169
-6.43908654981e-05
-0.000237709706078
-6.63249698376e-05
-0.000224674262425
-6.81631966352e-05
-0.000211381693635
-6.99118117289e-05
-0.000197868842387
-7.15878873498e-05
-0.000184170343731
-7.32234057379e-05
-0.000170316495572
-7.48653283148e-05
-0.000156330797521
-7.65775913397e-05
-0.000142225365203
-7.84446282257e-05
-0.000127997693104
-8.05683219457e-05
-0.000113627559613
-8.30649185194e-05
-9.90699078208e-05
-8.60624820785e-05
-8.42436511873e-05
-8.96856175756e-05
-6.90179797778e-05
-9.40112676461e-05
-5.32144861559e-05
-9.8959442163e-05
-3.65244083667e-05
-0.000104203861341
-1.86443459988e-05
-0.000107867655312
-0.000104100464405
-3.62578027212e-05
7.40277031615e-05
-6.83011584858e-05
0.000102554681046
-9.72117539202e-05
0.000124589414242
-0.000123824823412
0.000141445485153
-0.000148494307896
0.000152605405656
-0.000171462589301
0.000158625894504
-0.000192995988425
0.000160208752163
-0.000213206353026
0.000158318881625
-0.000232142858354
0.000153831406861
-0.000249850016851
0.000147499185805
-0.000266379085884
0.000139948545269
-0.000281789127757
0.000131677620235
-0.000296142371536
0.000123066933116
-0.00030949913064
0.000114394646393
-0.000321914274125
0.00010585448669
-0.000333435689006
9.75736933155e-05
-0.0003441043289
8.96293160184e-05
-0.000353955185896
8.20619520889e-05
-0.000363018595367
7.48866754864e-05
-0.000371321481467
6.81013474576e-05
-0.000378888349825
6.16927182816e-05
-0.000385741979497
5.56407887022e-05
-0.000391903849634
4.99218635934e-05
-0.000397394370548
4.45106536759e-05
-0.000402232991649
3.93816972201e-05
-0.000406438245605
3.4510299455e-05
-0.000410027770838
2.98731300796e-05
-0.000413018342344
2.54485791396e-05
-0.000415425931862
2.12169462527e-05
-0.000417265794142
1.71605163512e-05
-0.000418552526804
1.32635385258e-05
-0.000419300102237
9.51205024365e-06
-0.000419522235564
5.89353101034e-06
-0.000419233828617
2.39717277273e-06
-0.00041845249411
-9.83298739767e-07
-0.000417190406817
-4.24840348643e-06
-0.000415457768518
-7.40400803015e-06
-0.000413268760008
-1.04617791373e-05
-0.000410635531535
-1.34302080066e-05
-0.000407569480437
-1.63173460281e-05
-0.000404081393502
-1.91310151565e-05
-0.000400181379179
-2.1879073577e-05
-0.000395878717079
-2.45696186107e-05
-0.000391181669385
-2.72111385405e-05
-0.000386097270159
-2.98126016747e-05
-0.000380631104946
-3.23834691419e-05
-0.000374787097125
-3.49336164715e-05
-0.000368567323505
-3.74731492816e-05
-0.000361971887552
-4.00121016872e-05
-0.000354998882996
-4.25600128813e-05
-0.0003476444822
-4.51253881557e-05
-0.000339903182379
-4.77150636615e-05
-0.000331768236828
-5.03335115102e-05
-0.000323232284239
-5.29821431253e-05
-0.000314288173252
-5.56586807036e-05
-0.000304929958519
-5.83566800603e-05
-0.000295154015846
-6.1065297161e-05
-0.00028496022207
-6.37693584636e-05
-0.000274353093011
-6.64498473118e-05
-0.000263342777253
-6.90848113048e-05
-0.000251945929276
-7.16505762426e-05
-0.000240186107838
-7.41237226592e-05
-0.000228094004818
-7.64829693332e-05
-0.000215706891477
-7.87120839823e-05
-0.000203068159152
-8.08019297475e-05
-0.000190225006967
-8.2754964682e-05
-0.000177228409876
-8.45844851912e-05
-0.000164128584229
-8.63232321151e-05
-0.000150973090831
-8.802082242e-05
-0.000137805723724
-8.97449591361e-05
-0.00012466017266
-9.15901799508e-05
-0.000111555928733
-9.36725665111e-05
-9.84971111145e-05
-9.61237367352e-05
-8.5464821889e-05
-9.90947718692e-05
-7.24045907227e-05
-0.000102745849249
-5.92043754419e-05
-0.00010721148339
-4.56921745418e-05
-0.0001124716435
-3.15471357351e-05
-0.000118348900496
-1.62738021719e-05
-0.000123140989191
-0.000120374266644
-3.50693267111e-05
0.000109097032191
-6.7397728161e-05
0.000134883083074
-9.65313095056e-05
0.000153722995705
-0.00012286525899
0.00016777943461
-0.000146774665086
0.000176514811678
-0.000168600210412
0.000180451439745
-0.000188663408234
0.000180271949895
-0.000207191467339
0.000176846940639
-0.000224355783915
0.000170995723342
-0.000240298178745
0.000163441580533
-0.000255138369259
0.000154788735672
-0.000268976707838
0.000145515958695
-0.000281894831677
0.000135985056823
-0.000293956894282
0.000126456708857
-0.000305211902901
0.000117109495155
-0.000315696840576
0.000108058630826
-0.000325439956722
9.93724319862e-05
-0.000334463700342
9.10856955189e-05
-0.000342787005852
8.32099807929e-05
-0.000350426868071
7.57412094599e-05
-0.000357399293378
6.86651433592e-05
-0.00036371978188
6.19612769613e-05
-0.000369403502934
5.56055843897e-05
-0.000374465300756
4.9572451226e-05
-0.000378919629379
4.38360255534e-05
-0.000382780479343
3.83711491121e-05
-0.000386061328898
3.31539793066e-05
-0.000388775137187
2.81623870786e-05
-0.000390934392759
2.33762014506e-05
-0.000392551199953
1.87773231473e-05
-0.000393637308507
1.43496466547e-05
-0.000394204089909
1.00788311908e-05
-0.000394263040683
5.95248129336e-06
-0.000393827175311
1.96130689138e-06
-0.000392910219594
-1.90025497727e-06
-0.000391524356888
-5.63426671861e-06
-0.00038968051958
-9.24784587024e-06
-0.00038739063058
-1.27516686745e-05
-0.000384666379772
-1.61544593573e-05
-0.000381519351486
-1.94643748636e-05
-0.000377960932795
-2.26894344042e-05
-0.000374002148133
-2.5837858802e-05
-0.000369653441984
-2.89183253306e-05
-0.000364924422798
-3.19401583052e-05
-0.000359823575597
-3.49134494659e-05
-0.000354357953336
-3.78490920029e-05
-0.000348532864104
-4.07587063169e-05
-0.000342351580114
-4.36544339009e-05
-0.000335815103603
-4.65485788441e-05
-0.00032892203252
-4.94530846311e-05
-0.000321668572437
-5.23788489284e-05
-0.00031404874143
-5.53348953815e-05
-0.000306054811892
-5.83274417884e-05
-0.00029767801212
-6.13589436628e-05
-0.000288909489311
-6.44272043046e-05
-0.000279741520529
-6.7524649656e-05
-0.00027016888501
-7.06379335158e-05
-0.000260190363378
-7.3747880943e-05
-0.000249810237534
-7.6829974012e-05
-0.000239039503087
-7.98555466085e-05
-0.000227897288948
-8.27927912327e-05
-0.000216411249417
-8.5609763033e-05
-0.000204618456137
-8.82757634406e-05
-0.000192564325419
-9.07662155143e-05
-0.000180303598266
-9.30626576969e-05
-0.000167895613633
-9.51629500939e-05
-0.000155407662572
-9.70724370183e-05
-0.000142907506103
-9.8823389327e-05
-0.000130460781084
-0.000100467548178
-0.000118132894591
-0.000102072846339
-0.000105980918804
-0.000103742156441
-9.40454717185e-05
-0.000105608014253
-8.23526811162e-05
-0.000107816527964
-7.09070738195e-05
-0.00011054037972
-5.96783014917e-05
-0.000113974622085
-4.85771718486e-05
-0.000118312613463
-3.74368727133e-05
-0.000123611942978
-2.59816997716e-05
-0.000129804073747
-1.35844335333e-05
-0.000135538255542
-0.000133958700307
-3.3562591913e-05
0.000142659623524
-6.48524537391e-05
0.000166172945051
-9.32178731007e-05
0.000182088415182
-0.000118730489296
0.000193292050845
-0.000141668504825
0.000199452827205
-0.000162366592025
0.000201149526924
-0.000181158156395
0.000199063514235
-0.000198324809575
0.000194013593781
-0.000214101717781
0.000186772631505
-0.000228683432295
0.000178023294994
-0.000242226080567
0.000168331383884
-0.000254850518711
0.00015814039677
-0.000266646533246
0.000147781071278
-0.000277678337946
0.000137488513466
-0.000287990633043
0.000127421790149
-0.000297614373956
0.000117682371622
-0.000306571609146
0.000108329667048
-0.000314879102939
9.939318917e-05
-0.000322550767355
9.08816450536e-05
-0.000329599112106
8.2789554042e-05
-0.000336035987566
7.51020186359e-05
-0.000341872880416
6.77981696132e-05
-0.000347120967306
6.08536710671e-05
-0.000351791068417
5.42425521063e-05
-0.000355893586911
4.79385437989e-05
-0.000359438477737
4.19160396684e-05
-0.000362435259361
3.6150760638e-05
-0.00036489306806
3.06201954593e-05
-0.000366820757825
2.53038908715e-05
-0.000368227038457
2.01836034067e-05
-0.000369120555994
1.52431637867e-05
-0.000369509788249
1.04680630035e-05
-0.000369403259128
5.84595170494e-06
-0.000368811291214
1.36933847727e-06
-0.000367746268187
-2.96527851262e-06
-0.00036621972814
-7.16080727641e-06
-0.000364241273306
-1.12263012198e-05
-0.000361821812963
-1.51711295371e-05
-0.000358972957377
-1.90033154699e-05
-0.000355706812973
-2.27305198e-05
-0.000352035749169
-2.63604987481e-05
-0.000347972148751
-2.99014597679e-05
-0.00034352812513
-3.33623495094e-05
-0.000338715197944
-3.6753086059e-05
-0.000333543923515
-4.00847244755e-05
-0.000328023484879
-4.33695312341e-05
-0.000322161257645
-4.66209341651e-05
-0.000315962381284
-4.98533108956e-05
-0.0003094293795
-5.30815812854e-05
-0.000302561886319
-5.63205784957e-05
-0.000295356541837
-5.95841941242e-05
-0.0002878071202
-6.28843177613e-05
-0.000279904963005
-6.62295997572e-05
-0.000271639757832
-6.96241496403e-05
-0.000263000651587
-7.30663113786e-05
-0.000253977742198
-7.65475598977e-05
-0.000244563756145
-8.00519204366e-05
-0.000234755908779
-8.35557291859e-05
-0.000224557991797
-8.70278918726e-05
-0.000213981488279
-9.04320509977e-05
-0.000203048184515
-9.37260958616e-05
-0.000191789832936
-9.686811546e-05
-0.000180250832142
-9.98147650713e-05
-0.00016848493595
-0.000102532112533
-0.000156560459097
-0.000104987135361
-0.000144549254982
-0.000107174155022
-0.000132537095453
-0.000109084597345
-0.000120612243809
-0.000110748241772
-0.000108860071121
-0.000112219721647
-9.73683371657e-05
-0.000113564581066
-8.62221022713e-05
-0.000114888392078
-7.54857206977e-05
-0.00011634439654
-6.52066976657e-05
-0.000118095551639
-5.54121158048e-05
-0.000120334962148
-4.60919271329e-05
-0.000123294811206
-3.71843076268e-05
-0.000127220233345
-2.8519461712e-05
-0.000132276789204
-1.98895502246e-05
-0.000138433985358
-1.06043962151e-05
-0.000144823409773
-0.000144563096333
-3.16396736226e-05
0.000174299299251
-6.13838107629e-05
0.000195917082961
-8.84539984395e-05
0.000209158603203
-0.000112792654573
0.000217630707149
-0.000134599114622
0.000221259287348
-0.000154166974645
0.000220717387005
-0.000171813705853
0.000216710245482
-0.000187834030564
0.00021003391852
-0.000202485366094
0.000201423967051
-0.000215981877267
0.000191519806175
-0.000228492719854
0.000180842226468
-0.000240145132382
0.000169792809285
-0.000251030575722
0.000158666514595
-0.000261212438227
0.000147670375936
-0.000270733747586
0.000136943099463
-0.000279623817712
0.00012657244169
-0.000287903328618
0.000116609177883
-0.00029558781598
0.000107077676448
-0.000302689832508
9.79836614823e-05
-0.000309220147439
8.93198688604e-05
-0.000315188333782
8.10702048511e-05
-0.000320603018519
7.32128542076e-05
-0.000325471983664
6.57226360521e-05
-0.000329802229913
5.85727981776e-05
-0.000333600058543
5.17363722301e-05
-0.00033687119094
4.51871718437e-05
-0.000339620922601
3.89004920513e-05
-0.000341854295715
3.28535682964e-05
-0.000343576282064
2.70258769153e-05
-0.000344791986609
2.13993076136e-05
-0.000345506840764
1.59580175661e-05
-0.000345726504424
1.06877262476e-05
-0.000345456241662
5.57568847908e-06
-0.000344701722033
6.14818373419e-07
-0.000343475766813
-4.19123421503e-06
-0.000341790814441
-8.84576013555e-06
-0.000339653784402
-1.33633317505e-05
-0.000337074891753
-1.77500226836e-05
-0.000334065930889
-2.20122768367e-05
-0.000330639796553
-2.61566546471e-05
-0.000326810123283
-3.01901725365e-05
-0.000322590976742
-3.41206068377e-05
-0.000317996528975
-3.79567978179e-05
-0.00031304068382
-4.17089317688e-05
-0.000307736634365
-4.53887745024e-05
-0.000302096348413
-4.90098177779e-05
-0.000296129994933
-5.25872882605e-05
-0.000289845344918
-5.61379615532e-05
-0.000283247199593
-5.96797272831e-05
-0.000276336920232
-6.32308585623e-05
-0.00026911215248
-6.68089626167e-05
-0.000261566818517
-7.04296524979e-05
-0.000253691499633
-7.41049194483e-05
-0.000245474302938
-7.78413471706e-05
-0.000236902098726
-8.16385164495e-05
-0.000227962397808
-8.54872616933e-05
-0.000218645419935
-8.93688991941e-05
-0.000208946190929
-9.32549590811e-05
-0.000198867943148
-9.71061405351e-05
-0.000188421919464
-0.000100878075559
-0.000177633017705
-0.000104514998488
-0.000166536531647
-0.000107964602376
-0.000155185627461
-0.000111165670121
-0.000143641559673
-0.000114076181178
-0.000131988883173
-0.000116639812742
-0.000120312134118
-0.000118850904958
-0.000108716607982
-0.000120680124375
-9.73141430034e-05
-0.000122150707637
-8.62146871483e-05
-0.000123319178365
-7.55268662817e-05
-0.000124252402784
-6.53692789251e-05
-0.000125045980238
-5.58370562825e-05
-0.000125876619924
-4.70004435783e-05
-0.000126932164978
-3.89114973677e-05
-0.000128423908857
-3.15792797477e-05
-0.00013062702921
-2.49709153506e-05
-0.000133828597986
-1.89155537904e-05
-0.000138332150915
-1.32609260249e-05
-0.000144088613288
-7.32229853232e-06
-0.000150762036891
-0.000151885394936
-2.94633198887e-05
0.000203762618985
-5.74115464388e-05
0.000223865309911
-8.29337978946e-05
0.000234680855005
-0.000105913253791
0.000240610163295
-0.000126497253884
0.000241843287623
-0.000144936639258
0.000239156772522
-0.000161521030696
0.000233294637036
-0.000176534463128
0.000225047351051
-0.000190231070426
0.000215120574434
-0.000202823483504
0.000204112219326
-0.00021447906702
0.000192497810046
-0.00022532295342
0.000180636695737
-0.000235444892226
0.000168788453443
-0.000244907514139
0.00015713299788
-0.000253754129689
0.000145789715033
-0.000262015045244
0.000134833357252
-0.000269712108449
0.000124306241083
-0.000276861668122
0.000114227236102
-0.000283476340909
0.000104598334237
-0.000289565997858
9.54095257626e-05
-0.000295138308964
8.66425158955e-05
-0.000300199080055
7.82736252207e-05
-0.000304752522043
7.02760779458e-05
-0.000308801521687
6.26217977061e-05
-0.000312347936737
5.52827871431e-05
-0.000315392913405
4.8232148349e-05
-0.000317937213293
4.14447917473e-05
-0.00031998153275
3.48978875298e-05
-0.000321526787096
2.85711310048e-05
-0.000322574356055
2.24468762783e-05
-0.000323126325448
1.6509986619e-05
-0.00032318564177
1.07470421827e-05
-0.000322755652228
5.14569851874e-06
-0.000321839164944
-3.01669364815e-07
-0.000320446477713
-5.58392189897e-06
-0.000318588172789
-1.07040655143e-05
-0.000316270980056
-1.56805249433e-05
-0.000313505380049
-2.0515623155e-05
-0.000310303753516
-2.52139038425e-05
-0.000306679911724
-2.97804969203e-05
-0.000302648780591
-3.42213041622e-05
-0.000298226128909
-3.85432590243e-05
-0.00029342826479
-4.27546624577e-05
-0.000288271656524
-4.68655405748e-05
-0.000282772448483
-5.08879831056e-05
-0.00027694585707
-5.48364097793e-05
-0.000270805452342
-5.87276936078e-05
-0.000264362361384
-6.25810531629e-05
-0.000257624457036
-6.64176323203e-05
-0.000250595618438
-7.0259697887e-05
-0.000243275217221
-7.41293645961e-05
-0.000235657887527
-7.80469829906e-05
-0.000227733757407
-8.20290503958e-05
-0.000219489464789
-8.608564064e-05
-0.000210909379794
-9.02186023153e-05
-0.000201978011314
-9.44186310516e-05
-0.000192682764062
-9.86641473316e-05
-0.000183015483802
-0.000102922240222
-0.000172979416059
-0.000107142209158
-0.00016258415967
-0.00011127333283
-0.000151858897914
-0.000115240261124
-0.000140840970251
-0.00011898253094
-0.000129594531461
-0.000122412109828
-0.000118186466069
-0.000125484247512