/*--------------------------------*- C++ -*----------------------------------*\
| =========                 |                                                 |
| \\      /  F ield         | OpenFOAM: The Open Source CFD Toolbox           |
|  \\    /   O peration     | Version:  v1806                                 |
|   \\  /    A nd           | Web:      www.OpenFOAM.com                      |
|    \\/     M anipulation  |                                                 |
\*---------------------------------------------------------------------------*/
FoamFile
{
    version     2.0;
    format      ascii;
    class       surfaceScalarField;
    location    "700";
    object      phi;
}
// * * * * * * * * * * * * * * * * * * * * * * * * * * * * * * * * * * * * * //

dimensions      [0 3 -1 0 0 0 0];
oriented        oriented;


internalField   nonuniform List<scalar> 
12640
(
1.33261069629e-05
-1.33261439537e-05
2.0840743177e-05
-7.51467741703e-06
2.37588079375e-05
-2.91810870326e-06
1.61500218075e-05
7.60874686125e-06
-2.53700143105e-06
1.86869787661e-05
-3.13352589875e-05
2.87982121713e-05
-6.14871364235e-05
3.0151844344e-05
-9.20472079762e-05
3.05600438168e-05
-0.000122405966884
3.03587335349e-05
-0.000152083743387
2.96777535073e-05
-0.000180714684203
2.86309196664e-05
-0.000208038504625
2.73238010747e-05
-0.000233884212754
2.58456902926e-05
-0.00025815342356
2.42691942771e-05
-0.00028080470578
2.26512668295e-05
-0.000301839642052
2.10349217918e-05
-0.000321290898191
1.94512424915e-05
-0.000339212372352
1.79214611313e-05
-0.000355671338086
1.64589533023e-05
-0.000370742391212
1.50710411038e-05
-0.000384502951712
1.37605488973e-05
-0.000397030053789
1.25270907353e-05
-0.000408398163589
1.13680987451e-05
-0.000418677791523
1.02796170367e-05
-0.000427934697796
9.25689555824e-06
-0.000436229528362
8.29481993598e-06
-0.000443617749435
7.38821053999e-06
-0.000450149779713
6.53201977649e-06
-0.00045587124114
5.72145095367e-06
-0.000460823268656
4.95201704272e-06
-0.00046504282937
4.2195502249e-06
-0.000468563019925
3.52018005104e-06
-0.000471413289906
2.85025941722e-06
-0.000473619410017
2.2061095157e-06
-0.000475203109544
1.58368885731e-06
-0.000476182185713
9.79065526527e-07
-0.000476569326487
3.87130090753e-07
-0.000476373155027
-1.96182050014e-07
-0.000475600629136
-7.72536493015e-07
-0.000474261940021
-1.33869958361e-06
-0.000472371607838
-1.89034266417e-06
-0.000469943848339
-2.42776982028e-06
-0.000466991324025
-2.95253465436e-06
-0.000463524719811
-3.46661437272e-06
-0.000459552628045
-3.97210195543e-06
-0.000455081547955
-4.47109008465e-06
-0.000450115941738
-4.96561625892e-06
-0.000444658335346
-5.45761623368e-06
-0.000438709470502
-5.94887475922e-06
-0.00043226851745
-6.44096276906e-06
-0.000425333359457
-6.93516781768e-06
-0.000417900953531
-7.43241556402e-06
-0.000409967768112
-7.93319520263e-06
-0.000401530286802
-8.43749092403e-06
-0.000392585560604
-8.94473599706e-06
-0.000383131776486
-9.45379377029e-06
-0.00037316880309
-9.96298326958e-06
-0.00036269865984
-1.04701530004e-05
-0.000351725851399
-1.09728184484e-05
-0.000340257498401
-1.14683629053e-05
-0.000328303196907
-1.1954311688e-05
-0.000315874533637
-1.24286733833e-05
-0.000302984192455
-1.28903516018e-05
-0.000289644587847
-1.33396149607e-05
-0.000275865975533
-1.37786229823e-05
-0.000261653994659
-1.42119914813e-05
-0.000247006621939
-1.46473836384e-05
-0.000231910550296
-1.50960824987e-05
-0.000216337044819
-1.55735166421e-05
-0.000200237443718
-1.60996122135e-05
-0.000183538770691
-1.66986845499e-05
-0.00016614011176
-1.73986704881e-05
-0.000147911090336
-1.82290337102e-05
-0.000128696904407
-1.92141987916e-05
-0.000108340869481
-2.0356048765e-05
-8.67368089556e-05
-2.16040756986e-05
-6.39020072361e-05
-2.28348179919e-05
-4.00955168171e-05
-2.38065081595e-05
-1.66110032289e-05
-2.3484541939e-05
-1.66110206654e-05
9.7679851557e-06
-2.30942079376e-05
6.72741302082e-06
-4.47417497389e-06
-1.28409734383e-05
1.66502329917e-05
-4.10695330071e-05
3.58372757043e-05
-6.92046624261e-05
4.68220861917e-05
-9.6193504538e-05
5.57870369798e-05
-0.000125702141503
5.96604643746e-05
-0.000156029787203
6.08876736152e-05
-0.00018619939801
6.05283280634e-05
-0.000215587794972
5.90661350533e-05
-0.000243784071787
5.68271810665e-05
-0.000270518988726
5.40587035593e-05
-0.000295628173147
5.09548604743e-05
-0.000319026624879
4.76676326381e-05
-0.000340688777699
4.43134065273e-05
-0.00036063228488
4.09784165414e-05
-0.000378904868369
3.77238137732e-05
-0.000395573859933
3.45904409907e-05
-0.00041071811618
3.16031980326e-05
-0.000424421966782
2.87748805179e-05
-0.000436770852041
2.610942313e-05
-0.000447848313493
2.36045413366e-05
-0.000457734035172
2.12538097223e-05
-0.000466502674675
1.90482458816e-05
-0.000474223268895
1.6977479268e-05
-0.00048095904475
1.50305852052e-05
-0.000486767502604
1.31966579623e-05
-0.000491700675569
1.14651821238e-05
-0.000495805488168
9.82625310316e-06
-0.000499124165457
8.27068360666e-06
-0.000501694662891
6.79003712672e-06
-0.000503551087254
5.37659353153e-06
-0.000504724064827
4.02322632314e-06
-0.000505240948574
2.72298217954e-06
-0.000505125250781
1.4679802575e-06
-0.000504395868193
2.49671716537e-07
-0.000503078875537
-9.29873363286e-07
-0.000501210344434
-2.06472433696e-06
-0.000498824428462
-3.15846315234e-06
-0.000495945209179
-4.21792996126e-06
-0.000492586568185
-5.24899420354e-06
-0.000488758579369
-6.25576960998e-06
-0.000484469101803
-7.24202260217e-06
-0.000479724288084
-8.21143892391e-06
-0.000474528717955
-9.16768229398e-06
-0.000468885432373
-1.01143863525e-05
-0.000462795948141
-1.10551105343e-05
-0.000456260303625
-1.19932712955e-05
-0.000449277146195
-1.29320420911e-05
-0.000441843889395
-1.38742300047e-05
-0.000433956939874
-1.48221271392e-05
-0.000425612013391
-1.5777352415e-05
-0.000416804528334
-1.67406900131e-05
-0.000407530081412
-1.77119481985e-05
-0.000397784975716
-1.86898514631e-05
-0.000387566785228
-1.96719946515e-05
-0.00037687490434
-2.06548740065e-05
-0.00036571104529
-2.16340225394e-05
-0.000354079613426
-2.26042602956e-05
-0.000341987908474
-2.35600784863e-05
-0.000329446073891
-2.44961564331e-05
-0.000316466740841
-2.54080172285e-05
-0.000303064295908
-2.62928069001e-05
-0.000289253731596
-2.71501902429e-05
-0.000275049030048
-2.79833351015e-05
-0.000260461063285
-2.87999693724e-05
-0.000245494983877
-2.96134738007e-05
-0.000230147158001
-3.04439196187e-05
-0.000214401692238
-3.13189933071e-05
-0.000198226598112
-3.22747176671e-05
-0.000181569988776
-3.33553049498e-05
-0.000164356917688
-3.46117531114e-05
-0.000146487745213
-3.60982176893e-05
-0.000127840428413
-3.78615277205e-05
-0.000108279807886
-3.99166819667e-05
-8.76789009634e-05
-4.22049957852e-05
-6.59884604818e-05
-4.45252719232e-05
-4.34793278007e-05
-4.63156552918e-05
-2.11498372992e-05
-4.58140493322e-05
-3.77608709006e-05
-8.22015181374e-06
-1.48740666853e-05
-2.988432032e-05
1.71899588651e-05
-5.57338718344e-05
4.24997638871e-05
-8.09932984752e-05
6.10966866821e-05
-0.000108327603015
7.41563774331e-05
-0.000135462748243
8.2922170044e-05
-0.000163150776442
8.73484812931e-05
-0.000190912493572
8.86493794463e-05
-0.000218127749031
8.77435722774e-05
-0.000244327615187
8.52659896759e-05
-0.000269197507179
8.16970615921e-05
-0.000292545647988
7.74068327846e-05
-0.000314273521904
7.26827229885e-05
-0.000334351253164
6.7745352508e-05
-0.000352797638403
6.27597805913e-05
-0.000369664229911
5.78449969384e-05
-0.000385022970138
5.30825430821e-05
-0.000398956899793
4.85243597985e-05
-0.000411553443393
4.41997309311e-05
-0.000422899774969
4.01212014532e-05
-0.000433079795443
3.62894330495e-05
-0.000442172310759
3.26970461458e-05
-0.000450250070487
2.9331558973e-05
-0.000457379398624
2.61775635743e-05
-0.000463620215234
2.32182854065e-05
-0.000469026303621
2.04366631359e-05
-0.000473645719591
1.781606339e-05
-0.000477521270429
1.5340722417e-05
-0.000480691017153
1.29959891406e-05
-0.000483188785622
1.07684413763e-05
-0.000485044677626
8.64591825366e-06
-0.000486285526693
6.61743169946e-06
-0.00048693513928
4.67282778145e-06
-0.000487014519795
2.80235154445e-06
-0.000486543607601
9.97056734544e-07
-0.00048554468267
-7.49264421131e-07
-0.000484040842905
-2.43372443166e-06
-0.000482047399733
-4.05817861278e-06
-0.000479573671854
-5.63220222943e-06
-0.000476629643089
-7.16196969809e-06
-0.000473225178876
-8.65346948636e-06
-0.000469368883892
-1.01120754155e-05
-0.000465067961701
-1.15429557149e-05
-0.000460328188817
-1.29512224656e-05
-0.000455153891251
-1.43419906263e-05
-0.000449547914411
-1.572037369e-05
-0.00044351160553
-1.70914300375e-05
-0.000437044827117
-1.84600600655e-05
-0.00043014602296
-1.98308567546e-05
-0.000422812352706
-2.12079105162e-05
-0.000415039912252
-2.25945780304e-05
-0.00040682404856
-2.39932263193e-05
-0.000398159774853
-2.54049741464e-05
-0.000389042279023
-2.68294542621e-05
-0.000379467511599
-2.82646293688e-05
-0.000369432823357
-2.97066932141e-05
-0.000358937614769
-3.11500931902e-05
-0.000347983944244
-3.25877035288e-05
-0.000336577036447
-3.40111788455e-05
-0.00032472562154
-3.54115040341e-05
-0.000312442039534
-3.67797493682e-05
-0.000299742040761
-3.81080268261e-05
-0.000286644228352
-3.93906304096e-05
-0.000273169091746
-4.06253378448e-05
-0.000259337601542
-4.18148365494e-05
-0.000245169359336
-4.29682227112e-05
-0.000230680268344
-4.41025761322e-05
-0.000215879782891
-4.52444162887e-05
-0.000200767899225
-4.64308883515e-05
-0.00018533158793
-4.7711040216e-05
-0.000169541134544
-4.91457697483e-05
-0.000153347083038
-5.08058159619e-05
-0.000136677322525
-5.27679898062e-05
-0.000119434696047
-5.51041660155e-05
-0.000101496639023
-5.78547510711e-05
-8.2723361124e-05
-6.09782862975e-05
-6.3004203465e-05
-6.42444422028e-05
-4.23688582524e-05
-6.69510127598e-05
-2.11039731679e-05
-6.70789510429e-05
-5.88648522963e-05
-2.42700968664e-05
9.39594502056e-06
-5.20953206274e-05
4.50151542822e-05
-7.8612724964e-05
6.90171534711e-05
-0.000104991648414
8.74755983734e-05
-0.00013142705124
0.000100591769894
-0.000157445505034
0.000108940614683
-0.000183033437786
0.0001129364054
-0.000207963997399
0.000113579930598
-0.000231942589521
0.000111722155678
-0.000254728262784
0.000108051654007
-0.000276160992198
0.000103129781716
-0.000296157623303
9.74034544213e-05
-0.000314696249129
9.12213390994e-05
-0.000331798827096
8.48479206732e-05
-0.000347515847744
7.84767912945e-05
-0.000361914196986
7.22433362075e-05
-0.000375068266099
6.62366021456e-05
-0.000387053891554
6.0509975198e-05
-0.000397944538433
5.50903677107e-05
-0.000407809132811
4.99857857265e-05
-0.000416711026741
4.51913168471e-05
-0.000424707689533
4.06936987861e-05
-0.00043185083186
3.64746911244e-05
-0.000438186763922
3.2513485418e-05
-0.000443756861878
2.87883731119e-05
-0.000448598068928
2.52778598565e-05
-0.000452743390506
2.1961374587e-05
-0.000456222362493
1.88196838973e-05
-0.000459061479802
1.58350958694e-05
-0.000461284600779
1.29915516143e-05
-0.000462913349409
1.02746560538e-05
-0.000463967470339
7.67154160022e-06
-0.000464464897078
5.17024338309e-06
-0.000464421625507
2.75906864753e-06
-0.000463853576544
4.28996402207e-07
-0.000462782409697
-1.82044266368e-06
-0.000461225075483
-3.99106989932e-06
-0.000459191075774
-6.09218959055e-06
-0.000456691822088
-8.13146703672e-06
-0.000453737768279
-1.01160346488e-05
-0.000450338514661
-1.20527340858e-05
-0.000446502501444
-1.3948099635e-05
-0.000442236918488
-1.58085495021e-05
-0.000437547636286
-1.76405155247e-05
-0.000432439130698
-1.94505068991e-05
-0.000426914406686
-2.12451084263e-05
-0.000420974935225
-2.30309120596e-05
-0.000414620625056
-2.48143808574e-05
-0.000407849849232
-2.66016430583e-05
-0.000400659550097
-2.83982202236e-05
-0.000393045441068
-3.02086975176e-05
-0.000385002322989
-3.20363549895e-05
-0.000376524522113
-3.38827855354e-05
-0.000367606450298
-3.57475367609e-05
-0.000358243272238
-3.76278180717e-05
-0.000348431654219
-3.95183220795e-05
-0.000338170550238
-4.14112080023e-05
-0.000327461973292
-4.32962915228e-05
-0.000316311683538
-4.51614796433e-05
-0.000304729719343
-4.69934794837e-05
-0.000292730698745
-4.87787812077e-05
-0.000280333816238
-5.05049207644e-05
-0.00026756248071
-5.21619773412e-05
-0.000254443549649
-5.37442804692e-05
-0.000241006112478
-5.52522852382e-05
-0.000227279882418
-5.66944644115e-05
-0.000213293109612
-5.80893605191e-05
-0.00019906997765
-5.9467559911e-05
-0.000184628133111
-6.08727444836e-05
-0.000169975192898
-6.23639920727e-05
-0.000155104856075
-6.40161181685e-05
-0.000139994303098
-6.59163806222e-05
-0.000124600138383
-6.8162166254e-05
-0.000108851397109
-7.0852919219e-05
-9.26426967811e-05
-7.40634636921e-05
-7.58291652847e-05
-7.77918300417e-05
-5.82324019634e-05
-8.1841217947e-05
-3.9649590199e-05
-8.55338375718e-05
-1.99689688612e-05
-8.67595843791e-05
-7.883383109e-05
-3.35581217448e-05
4.29540845609e-05
-6.25555365343e-05
7.40125617378e-05
-9.03990647556e-05
9.68606717564e-05
-0.00011723326065
0.000114309784639
-0.000142997073925
0.000126355574412
-0.000167611881709
0.000133555414493
-0.000191140223851
0.000136464740099
-0.000213532302391
0.00013597200182
-0.000234707402537
0.000132897248432
-0.000254606294023
0.000127950537819
-0.000273204804976
0.000121728284721
-0.000290513486939
0.000114712128099
-0.000306569436802
0.000107277280421
-0.000321426265617
9.97047406747e-05
-0.0003351453294
9.21958460749e-05
-0.000347789368714
8.48873663212e-05
-0.00035941858252
7.78658066189e-05
-0.000370088648042
7.11800312514e-05
-0.000379850065093
6.48517751972e-05
-0.000388748272081
5.88839830544e-05
-0.000396824126459
5.32671614915e-05
-0.000404114493214
4.7984055736e-05
-0.00041065280393
4.30129919659e-05
-0.000416469531877
3.83302034259e-05
-0.000421592575626
3.39114068373e-05
-0.000426047563773
2.97328378986e-05
-0.000429858102065
2.5771902651e-05
-0.000433045985071
2.20075565631e-05
-0.000435631397752
1.84204980506e-05
-0.000437633100834
1.49932440591e-05
-0.000439068615068
1.1710159469e-05
-0.000439954423676
8.55733921195e-06
-0.0004403061454
5.52195385049e-06
-0.000440138579765
2.59149161492e-06
-0.000439466144388
-2.43450422154e-07
-0.000438307799429
-2.97879897992e-06
-0.000436679855383
-5.61902526449e-06
-0.000434592132844
-8.179923339e-06
-0.000432055166156
-1.06684449067e-05
-0.000429078968413
-1.30922434651e-05
-0.000425672892089
-1.54588214586e-05
-0.000421845405563
-1.77755970982e-05
-0.000417603935612
-2.00500303718e-05
-0.000412954724138
-2.2289737809e-05
-0.00040790268498
-2.45025568617e-05
-0.000402451262161
-2.66965419568e-05
-0.000396602303611
-2.8879881339e-05
-0.00039035596993
-3.10607251995e-05
-0.00038371070374
-3.32469199623e-05
-0.000376663286174
-3.54456484721e-05
-0.000369209008336
-3.76629861353e-05
-0.000361341980479
-3.99033936362e-05
-0.000353055595725
-4.21691812258e-05
-0.000344343151408
-4.44599920636e-05
-0.000335198618478
-4.67723621687e-05
-0.000325617531586
-4.90994202165e-05
-0.000315597952784
-5.14307982412e-05
-0.000305141448483
-5.37528073376e-05
-0.000294254008005
-5.60489318084e-05
-0.000282946803335
-5.83006958919e-05
-0.000271236725876
-6.04888705388e-05
-0.000259146593028
-6.25950654988e-05
-0.000246704975915
-6.46036064344e-05
-0.000233945628245
-6.6503640109e-05
-0.000220906377819
-6.82915476897e-05
-0.000207627695839
-6.9973158395e-05
-0.000194150876911
-7.15661914723e-05
-0.000180515125867
-7.31033229559e-05
-0.000166755950459
-7.46319319019e-05
-0.000152901623438
-7.62183311055e-05
-0.000138968063669
-7.79496899728e-05
-0.000124957501603
-7.99269547566e-05
-0.000110855042398
-8.22646376453e-05
-9.66175686515e-05
-8.50904053645e-05
-8.21638494672e-05
-8.85171953551e-05
-6.73588741927e-05
-9.25968182263e-05
-5.19909359181e-05
-9.72091685396e-05
-3.57199579938e-05
-0.000101804827093
-1.81602221562e-05
-0.000104319336027
-9.6994059362e-05
-3.46978035704e-05
7.76518404535e-05
-6.596141084e-05
0.000105276154413
-9.47471028727e-05
0.000125646354162
-0.000121550550801
0.000141113224124
-0.000146527742513
0.00015133275845
-0.000169794423803
0.000156822088742
-0.000191522028194
0.000158192337859
-0.000211814363528
0.000156264330672
-0.000230744813548
0.000151827691885
-0.000248382653485
0.000145588370982
-0.000264799703566
0.000138145327723
-0.000280069963558
0.000129982380703
-0.00029426588454
0.000121473193686
-0.00030745459641
0.00011289344454
-0.00031969554968
0.000104436791062
-0.000331039839161
9.62316472869e-05
-0.000341530821098
8.83567798247e-05
-0.000351205432229
8.08546334744e-05
-0.000360095692349
7.37420262508e-05
-0.000368230053247
6.70183347542e-05
-0.000375634438327
6.06715372556e-05
-0.00038233294901
5.46825570016e-05
-0.000388348288281
4.90283217243e-05
-0.000393701979915
4.36838854508e-05
-0.000398414461344
3.86238785545e-05
-0.000402505112324
3.38234790441e-05
-0.000405992263402
2.92590437568e-05
-0.000408893216487
2.49084995097e-05
-0.00041122429754
2.07515687883e-05
-0.000413000942203
1.67698782142e-05
-0.000414237756405
1.29469629437e-05
-0.000414948549847
9.26812164672e-06
-0.000415146730404
5.72012319708e-06
-0.000414846774881
2.2915246514e-06
-0.000414065622115
-1.02461468289e-06
-0.000412814878729
-4.22955374915e-06
-0.000411104044223
-7.32987104912e-06
-0.000408946250613
-1.0337728159e-05
-0.00040635260461
-1.32621020372e-05
-0.00040333341343
-1.611144572e-05
-0.000399898330131
-1.88939157587e-05
-0.000396056291356
-2.16176468311e-05
-0.000391815371752
-2.42909608707e-05
-0.000387182599041
-2.69225213874e-05
-0.000382163746221
-2.95214205053e-05
-0.000376763114488
-3.20971845132e-05
-0.000370983324623
-3.46596820167e-05
-0.000364825141215
-3.72189194581e-05
-0.000358287360063
-3.97847119984e-05
-0.000351366794325
-4.23662251885e-05
-0.000344058396236
-4.49713952822e-05
-0.000336355548664
-4.76062524182e-05
-0.000328250552902
-5.02741883246e-05
-0.000319735323982
-5.2975232513e-05
-0.000310802285026
-5.57054128081e-05
-0.00030144543878
-5.84562783437e-05
-0.000291661556938
-6.12146921086e-05
-0.00028145141447
-6.39629619943e-05
-0.000270821007806
-6.66793507561e-05
-0.000259782583861
-6.93391322196e-05
-0.000248355464907
-7.19160019109e-05
-0.00023656648981
-7.43840530521e-05
-0.000224449998847
-7.67201098546e-05
-0.000212047498516
-7.89061528947e-05
-0.000199406538052
-8.09325206057e-05
-0.000186579279105
-8.28004297799e-05
-0.00017362128136
-8.45242016448e-05
-0.00016058716204
-8.61374547372e-05
-0.000147530468312
-8.76886380576e-05
-0.00013450060952
-8.9248202433e-05
-0.000121534114308
-9.09161977226e-05
-0.000108654330953
-9.28067508225e-05
-9.58723077628e-05
-9.50466736288e-05
-8.31705083686e-05
-9.77922177293e-05
-7.04928777651e-05
-0.000101194839257
-5.77246165564e-05
-0.000105365092293
-4.46566410792e-05
-0.000110277157143
-3.09050100986e-05
-0.00011555647128
-1.58737744422e-05
-0.000119350581914
-0.00011286784286
-3.40682991041e-05
0.000111720167943
-6.5627504805e-05
0.000136835361439
-9.44338493482e-05
0.000154452693849
-0.000120741115948
0.000167420484416
-0.000144776485885
0.000175368121978
-0.000166767915563
0.000178813512262
-0.000186958132815
0.000178382549165
-0.000205550883154
0.000174857075133
-0.000222719733377
0.000168996536152
-0.000238616064798
0.000161484696248
-0.000253370626736
0.000152899883247
-0.000267093519946
0.000143705267194
-0.000279874249406
0.000134253916123
-0.00029178310347
0.000124802291272
-0.000302873877121
0.000115527557098
-0.000313187376912
0.000106545139195
-0.000322755011906
9.79244067008e-05
-0.000331601935789
8.97015490273e-05
-0.000339749466357
8.18895483043e-05
-0.000347216739958
7.44855996787e-05
-0.000354021705785
6.74764942685e-05
-0.000360181628023
6.08424703019e-05
-0.000365713267182
5.45599518299e-05
-0.000370632883205
4.86034923034e-05
-0.000374956163595
4.2947149646e-05
-0.000378698141783
3.75654477829e-05
-0.000381873139954
3.24340323038e-05
-0.000384494755378
2.75301051046e-05
-0.000386575905325
2.28327086861e-05
-0.000388128915938
1.83228785374e-05
-0.000389165558009
1.39835944465e-05
-0.000389697022343
9.79957509981e-06
-0.000389734431552
5.7575210817e-06
-0.000389290315743
1.84739740949e-06
-0.000388377855624
-1.93708621621e-06
-0.000387008543434
-5.59887725045e-06
-0.000385192383402
-9.14604229763e-06
-0.000382940239093
-1.25898835986e-05
-0.000380262696822
-1.59396553728e-05
-0.000377170198292
-1.92039552503e-05
-0.000373672955523
-2.23911694832e-05
-0.000369780789571
-2.55098236918e-05
-0.00036550291512
-2.85688462086e-05
-0.000360847684197
-3.15777631789e-05
-0.000355822297248
-3.45468183316e-05
-0.000350432492677
-3.74869999857e-05
-0.000344682233535
-4.04099521159e-05
-0.000338573419323
-4.33277447067e-05
-0.000332105660668
-4.62524818086e-05
-0.000325276163362
-4.91957337861e-05
-0.000318079773208
-5.21677969182e-05
-0.000310509229733
-5.51768075616e-05
-0.000302555671336
-5.82277586245e-05
-0.000294209414791
-6.13215011722e-05
-0.000285460996491
-6.44538434561e-05
-0.000276302468838
-6.76148185343e-05
-0.000266728879246
-7.07882944134e-05
-0.000256739800793
-7.39520532767e-05
-0.000246340965872
-7.70781985871e-05
-0.000235545584725
-8.01345263078e-05
-0.000224375538244
-8.30860613253e-05
-0.000212862120078
-8.58974841399e-05
-0.000201046076516
-8.85361662937e-05
-0.000188977676321
-9.09745659599e-05
-0.000176715496528
-9.31947132603e-05
-0.000164324473826
-9.51914653324e-05
-0.000151876552781
-9.69721356418e-05
-0.000139442857085
-9.85711633104e-05
-0.00012709528922
-0.000100036219052
-0.000114906605962
-0.000101436898793
-0.00010293564847
-0.00010288716863
-9.1223472388e-05
-0.000104518940334
-7.98050628337e-05
-0.000106465096847
-6.86856997999e-05
-0.000108911594661
-5.78319262474e-05
-0.000112048626574
-4.7152515399e-05
-0.000116044517245
-3.64590715076e-05
-0.000120970613463
-2.53930876187e-05
-0.000126622466639
-1.32098622195e-05
-0.000131533823011
-0.000126077709856
-3.27709899246e-05
0.000144491135481
-6.34224567159e-05
0.000167486822561
-9.1419671581e-05
0.000182449904175
-0.000116794525418
0.00019279533328
-0.000139735424223
0.000198309015629
-0.000160494650697
0.000199572733586
-0.000179345212597
0.000197233105964
-0.000196541664746
0.000192053522146
-0.000212310594444
0.000184765460598
-0.000226846623171
0.000176020719524
-0.000240309919128
0.000166363173499
-0.000252826632684
0.000156221974758
-0.000264491910052
0.000145919187196
-0.000275374918596
0.000135685293218
-0.000285524788263
0.000125677419873
-0.000294976405408
0.000115996749171
-0.000303755319663
0.00010670331353
-0.000311881437052
9.7827658761e-05
-0.000319371508402
8.93796117951e-05
-0.000326240619338
8.13547025784e-05
-0.00033250295852
7.37388252591e-05
-0.000338172126954
6.65116304093e-05
-0.000343261196758
5.96490131758e-05
-0.000347782663618
5.31249505709e-05
-0.00035174838136
4.69128586424e-05
-0.000355169524413
4.09865819113e-05
-0.000358056592521
3.53210912679e-05
-0.000360419458594
2.9892961792e-05
-0.000362267465932
2.46807063634e-05
-0.000363609571249
1.9664973897e-05
-0.000364454440337
1.48284532077e-05
-0.000364810346105
1.01554700612e-05
-0.000364685341487
5.63250541171e-06
-0.000364089110614
1.25115510469e-06
-0.000363033529375
-2.99267880922e-06
-0.000361529362096
-7.10305572125e-06
-0.00035958507579
-1.10903396844e-05
-0.000357210429577
-1.49645408019e-05
-0.000354415859654
-1.87342362252e-05
-0.000351212279344
-2.24075464356e-05
-0.000347610848904
-2.59926107719e-05
-0.000343622727042
-2.94979563831e-05
-0.000339258786471
-3.29327976174e-05
-0.0003345292848
-3.63072757103e-05
-0.000329443487995
-3.96326260578e-05
-0.000324009252166
-4.29212468116e-05
-0.000318232581722
-4.61866336859e-05
-0.000312117195856
-4.94431418467e-05
-0.000305664150143
-5.27055389929e-05
-0.000298871574378
-5.59883212543e-05
-0.000291734600147
-5.93047831003e-05
-0.0002842455446
-6.26658753433e-05
-0.000276394413224
-6.60789025041e-05
-0.000268169775786
-6.95461513824e-05
-0.000259559968439
-7.306366381e-05
-0.000250554653279
-7.66201468881e-05
-0.000241146694494
-8.01962665325e-05
-0.000231333950017
-8.37648111448e-05
-0.000221121551713
-8.72906103177e-05
-0.000210523460149
-9.07326312453e-05
-0.000199564122207
-9.40454126173e-05
-0.000188279699929
-9.71819197176e-05
-0.000176717845365
-0.000100098034108
-0.000164938513028
-0.000102753911627
-0.000153012817067
-0.000105120422521
-0.000141019174197
-0.00010718512172
-0.000129048418646
-0.000108942904743
-0.000117190722376
-0.000110428873384
-0.000105536115964
-0.000111690839341
-9.41821682032e-05
-0.000112790860692
-8.32173365799e-05
-0.000113852014671
-7.26996973761e-05
-0.000115036594174
-6.2687158409e-05
-0.000116477650671
-5.32073998648e-05
-0.000118391367862
-4.42470771362e-05
-0.000121008964137
-3.57375828253e-05
-0.0001245540251
-2.75126287603e-05
-0.000129195581524
-1.92775225194e-05
-0.000134857585877
-1.02142173199e-05
-0.000140597136831
-0.00013629193569
-3.09812096855e-05
0.000175472374535
-6.01794170929e-05
0.000196685036352
-8.68876886448e-05
0.000209158175446
-0.000111035598351
0.000216943240322
-0.000132767460002
0.000220040873713
-0.000152320485816
0.000219125755494
-0.000169967661165
0.000214880277224
-0.000185978637888
0.00020806449463
-0.000200598348851
0.000199385167132
-0.000214036080012
0.000189458446033
-0.000226460646185
0.00017878773476
-0.000238001365437
0.000167762688817
-0.00024875296812
0.000156670784391
-0.000258782592974
0.000145714912287
-0.000268137117291
0.000135031938111
-0.000276849608633
0.000124709234153
-0.000284944312691
0.000114798010967
-0.000292440104687
0.000105323443897
-0.000299352638414
9.62921384513e-05
-0.000305695543942
8.76976008511e-05
-0.000311481015625
7.95242895272e-05
-0.000316720062232
7.1750669456e-05
-0.000321422605504
6.43515487492e-05
-0.00032559753839
5.72998756049e-05
-0.000329252798967
5.05681111934e-05
-0.000332395481342
4.41292560417e-05
-0.000335031981596
3.79575830224e-05
-0.000337168159497
3.20291308836e-05
-0.00033880952109
2.63220588258e-05
-0.000339961425741
2.08168690479e-05
-0.000340629296267
1.54963137566e-05
-0.000340818560489
1.03447237673e-05
-0.000340533948119
5.34788186881e-06
-0.000339779827442
4.97023267185e-07
-0.000338568697844
-4.2038194984e-06
-0.000336912499799
-8.7592647287e-06
-0.000334816524806
-1.31863255198e-05
-0.000332289706764
-1.74913696155e-05
-0.000329342598162
-2.16813555367e-05
-0.000325986861069
-2.57632942188e-05
-0.000322234901902
-2.9744580617e-05
-0.000318099561101
-3.36333078907e-05
-0.000313593782946
-3.74385865193e-05
-0.000308730231148
-4.11708383493e-05
-0.000303520832522
-4.48420356291e-05
-0.000297976246166
-4.84658442882e-05
-0.000292105272662
-5.20576184974e-05
-0.000285914239484
-5.56341865866e-05
-0.000279406420068
-5.92133702517e-05
-0.000272581564528
-6.28131889458e-05
-0.0002654356522
-6.64507079158e-05
-0.000257960959414
-7.01405809368e-05
-0.00025014651406
-7.38933609681e-05
-0.000241979091822
-7.77135870016e-05
-0.000233444587146
-8.15981820594e-05
-0.000224529819322
-8.55349284468e-05
-0.000215225073694
-8.95010259294e-05
-0.00020552585652
-9.3464042129e-05
-0.000195436351786
-9.73801287857e-05
-0.000184970992311
-0.00010119800443
-0.000174156633747
-0.000104859784883
-0.000163034759446
-0.000108303807655
-0.000151660232197
-0.000111472575215
-0.000140103276682
-0.000114310881018
-0.000128449146848
-0.000116774566637
-0.000116790054657
-0.000118844228418
-0.000105236699084
-0.000120496275091
-9.39037098995e-05
-0.000121761877537
-8.29007785894e-05
-0.0001226937857
-7.23462808378e-05
-0.000123345374022
-6.2370245748e-05
-0.000123828065328
-5.30523366235e-05
-0.000124354519153
-4.44723750335e-05
-0.000125057627661
-3.66840216564e-05
-0.000126179736716
-2.96948316494e-05
-0.000127998168653
-2.34570465768e-05
-0.000130791824909
-1.78235993242e-05
-0.000134829040278
-1.25673983618e-05
-0.000140113797655
-6.88657517704e-06
-0.000146277975413
-0.000143178514338
-2.89091018714e-05
0.000204381463296
-5.63775230874e-05
0.000224153457077
-8.15534431136e-05
0.00023433409522
-0.000104315845238
0.000239705641109
-0.000124776288288
0.000240501314636
-0.000143146775069
0.000237496239668
-0.00015968417782
0.000231417677061
-0.000174651082571
0.000223031396207
-0.000188288604096
0.000213022685242
-0.000200802428948
0.000201972267213
-0.000212357222676
0.000190342524547
-0.000223078176992
0.000178483638908
-0.000233056810003
0.000166649412885
-0.000242358503639
0.000155016601109
-0.000251029825284
0.000143703254651
-0.000259104541203
0.000132783944682
-0.000266607976606
0.000122301440714
-0.000273559865047
0.00011227532644
-0.000279976050246
0.000102708317537
-0.000285869434405
9.3590978708e-05
-0.000291250499318
8.49053479752e-05
-0.000296127626984
7.66277905099e-05
-0.000300507355721
6.87312707228e-05
-0.000304394638754
6.11871517096e-05
-0.00030779312582
5.39665911223e-05
-0.000310705465046
4.7041587877e-05
-0.000313133614688
4.03857249511e-05
-0.000315079160532
3.39746686593e-05
-0.000316543588846
2.77864786714e-05
-0.000317528519115
2.18017903595e-05
-0.000318035950223
1.60037352803e-05
-0.000318068474857
1.03772381582e-05
-0.00031762920136
4.90859772099e-06
-0.000316721459905
-4.10729272988e-07
-0.000315352785019
-5.57250521582e-06
-0.000313530706416
-1.05813539686e-05
-0.000311261783532
-1.54552589335e-05
-0.000308555436605
-2.01977269886e-05
-0.000305422831642
-2.48139709228e-05
-0.00030187653598
-2.93096002917e-05
-0.0002979302473
-3.36908797547e-05
-0.000293598530634
-3.79650350725e-05
-0.000288896508535
-4.21406192578e-05
-0.000283839466937
-4.6227890723e-05
-0.000278442349668
-5.02391638941e-05
-0.000272719128027
-5.41890771505e-05
-0.000266682052566
-5.8094705493e-05
-0.000260340824139
-6.19754268729e-05
-0.00025370175763
-6.58524489865e-05
-0.000246767024561
-6.97479346229e-05
-0.000239534147215
-7.36835982317e-05
-0.000231995901912
-7.76788395414e-05
-0.000224140617123
-8.17486593569e-05
-0.000215953345532
-8.59008723775e-05
-0.000207417451955
-9.01340896051e-05
-0.000198516411693
-9.44359826914e-05
-0.000189237806672
-9.8779644995e-05
-0.000179574011198
-0.000103127851597
-0.000169528024681
-0.000107426129258
-0.000159114539566
-0.000111611503611
-0.000148362458512
-0.000115611880007
-0.000137319105436
-0.000119347175131
-0.000126046674672
-0.000122745020638
-0.000114625753682
-0.000125731817034