/*--------------------------------*- C++ -*----------------------------------*\
| =========                 |                                                 |
| \\      /  F ield         | OpenFOAM: The Open Source CFD Toolbox           |
|  \\    /   O peration     | Version:  v1806                                 |
|   \\  /    A nd           | Web:      www.OpenFOAM.com                      |
|    \\/     M anipulation  |                                                 |
\*---------------------------------------------------------------------------*/
FoamFile
{
    version     2.0;
    format      ascii;
    class       surfaceScalarField;
    location    "700";
    object      phia;
}
// * * * * * * * * * * * * * * * * * * * * * * * * * * * * * * * * * * * * * //

dimensions      [0 3 -1 0 0 0 0];
oriented        oriented;


internalField   nonuniform List<scalar> 
12640
(
-0.00147708450914
0.00147718266511
-0.00278181277217
0.00130483843034
-0.0040600173948
0.00127832977424
-0.00579825945013
0.00173836315318
-0.00705740934845
0.00125929814325
-0.00852549675507
0.00146824892669
-0.00958968245588
0.00106430591042
-0.0104006207896
0.000811044903551
-0.0110467105502
0.00064619025729
-0.0115728576923
0.000526243890312
-0.0120058149652
0.000433049889414
-0.0123638319484
0.000358107953988
-0.0126605844025
0.000296841349981
-0.0129068057076
0.000246310795516
-0.0131110696247
0.000204353467039
-0.0132802797518
0.00016930204833
-0.0134200394909
0.000139853356242
-0.0135349153327
0.000114973048032
-0.0136286370395
9.38217690351e-05
-0.0137042442647
7.57116726787e-05
-0.0137642147425
6.00785881923e-05
-0.0138105649547
4.64632057131e-05
-0.0138449417555
3.44940024234e-05
-0.0138686918326
2.38724378652e-05
-0.0138829252786
1.43603590657e-05
-0.0138885621404
5.76905365983e-06
-0.0138863761031
-2.0490814883e-06
-0.013877026798
-9.20704135134e-06
-0.0138610899622
-1.57896649577e-05
-0.0138390932288
-2.18443181469e-05
-0.0138115564233
-2.73793896381e-05
-0.0137792152105
-3.21786547746e-05
-0.0137432705159
-3.57769431707e-05
-0.0137060137496
-3.70839074992e-05
-0.013664391797
-4.14441434186e-05
-0.0135872556716
-7.69541977851e-05
-0.013477196672
-0.000109873018289
-0.0133397531437
-0.000137254669752
-0.0131875818547
-0.000151979570428
-0.0130257951956
-0.00016159338841
-0.0128579639551
-0.000167636351799
-0.0126862865995
-0.000171482377445
-0.0125121990242
-0.000173892420305
-0.0123367152133
-0.00017529010997
-0.0121606281194
-0.000175894705391
-0.0119846342841
-0.000175804390726
-0.0118093944041
-0.000175053160291
-0.0116355711825
-0.000173640774993
-0.01146385113
-0.000171541562591
-0.0112949686686
-0.000168709330066
-0.0111297207606
-0.000165079705836
-0.0109689834523
-0.000160575253641
-0.010813716809
-0.000155110185075
-0.010664967737
-0.000148599236256
-0.0105238563254
-0.0001409675256
-0.0103915540832
-0.000132165156141
-0.0102692409145
-0.00012218209817
-0.0101580503842
-0.000111066183207
-0.010058993476
-9.89384044247e-05
-0.00997287348557
-8.60079338843e-05
-0.00990018654962
-7.25803667971e-05
-0.00984102369845
-5.90623033785e-05
-0.0097949713924
-4.59567589772e-05
-0.00976102699998
-3.38543365677e-05
-0.00973752320626
-2.34181897747e-05
-0.00972207566818
-1.53668578006e-05
-0.00971153518368
-1.04637358387e-05
-0.00970196946396
-9.49335478834e-06
-0.00968860518885
-1.32953368161e-05
-0.00966590000053
-2.26398567351e-05
-0.00962731670526
-3.85207268913e-05
-0.00956607933876
-6.1176888245e-05
-0.00947376294269
-9.2258321169e-05
-0.00934636461597
-0.000127339708346
-0.00916996682506
-0.000176343618069
-0.00896083007949
-0.000209080153873
-0.00861129090296
-0.000349487137962
-0.00817575901092
-0.000435488932204
-0.00571084382754
-0.00246477424128
-0.00571079575604
-0.00130177605782
0.00277913658294
-0.0032780185893
0.00328125583442
-0.00503711798407
0.00303756390591
-0.00676976381038
0.00347110800903
-0.00861431631536
0.00310392290479
-0.00982030877246
0.00267429430247
-0.0110772063601
0.00232125524767
-0.0123072551791
0.00204114267122
-0.0134793842249
0.0018183705763
-0.0145834384515
0.00163034771696
-0.0156141201969
0.00146378197027
-0.0165693033505
0.00131333988008
-0.0174496069363
0.00117719405928
-0.018257666327
0.00105441881344
-0.0189973213661
0.000944057955013
-0.0196729765514
0.000845007461203
-0.0202891834208
0.000756111902888
-0.0208503955171
0.00067623872555
-0.0213608307511
0.000604312592428
-0.0218243978245
0.000539337153846
-0.0222446678125
0.00048040943983
-0.0226248687792
0.000426728575606
-0.0229679006989
0.000377593120914
-0.0232763529678
0.000332395998021
-0.023552531519
0.000290613239826
-0.023798479712
0.000251796089467
-0.0240160068003
0.000215560073541
-0.0242067054315
0.000181578502093
-0.0243719843057
0.000149579498614
-0.0245130694341
0.000119336138413
-0.024631047256
9.06971996103e-05
-0.0247266258543
6.35038211232e-05
-0.024800340116
3.80447537783e-05
-0.0248533163269
1.60045623614e-05
-0.0249055513812
1.09063106452e-05
-0.0249960874279
1.37011549464e-05
-0.0250801788839
-2.56603116189e-05
-0.0251344100406
-8.28996909295e-05
-0.0251541630529
-0.000132101603695
-0.0251362946366
-0.000179335419758
-0.025078093298
-0.000225711044358
-0.0249782136781
-0.000271235166093
-0.0248355913949
-0.000316388575572
-0.0246490781584
-0.000361678277971
-0.0244174275708
-0.00040742186909
-0.0241393344462
-0.000453776274812
-0.0238134672777
-0.000500801571567
-0.0234385002998
-0.000548492097542
-0.0230131504905
-0.000596778881383
-0.0225362265626
-0.000645524530891
-0.0220066878117
-0.000694513386544
-0.0214237193416
-0.000743442804537
-0.020786821579
-0.000791910980205
-0.0200959200503
-0.000839408078945
-0.0193514908971
-0.000885308054142
-0.018554702681
-0.000928868947478
-0.0177075643949
-0.000969239974308
-0.0168130716515
-0.00100548248378
-0.0158753345527
-0.00103660290649
-0.0148996716092
-0.00106160192221
-0.013892651023
-0.00107953558175
-0.0128620635977
-0.00108958762232
-0.0118168162662
-0.00109114523022
-0.0107667418364
-0.00108387276858
-0.00972233166192
-0.00106777523408
-0.00869440467298
-0.00104324319081
-0.00769373688303
-0.00101108339326
-0.00673067494532
-0.000972509273726
-0.00581476549922
-0.000929160933584
-0.00495439277662
-0.000882970330174
-0.00415647509476
-0.000836397536678
-0.00342616433335
-0.000791447760195
-0.00276658042912
-0.000751802270466
-0.00217859393663
-0.000715287693504
-0.00165952581291
-0.000695371327113
-0.00120604764421
-0.000662523826445
-0.000790951905882
-0.000764545364193
-0.000416986407482
-0.000809407681615
0.000284539332394
-0.00316627057931
-0.0054262098991
-0.00464377376678
0.00742298669494
-0.00571163067334
0.0043492308989
-0.00595324399255
0.00327924695443
-0.00595210368521
0.00347001990668
-0.00616545992879
0.0033173190592
-0.00659965464989
0.00310852174328
-0.00722495856763
0.00294658644144
-0.00794783344181
0.00276404331047
-0.00868118669965
0.00255174830704
-0.00937729592508
0.0023264809626
-0.0100150360662
0.00210154484913
-0.010586562529
0.00188488796632
-0.0110908828168
0.00168153457612
-0.0115307248199
0.00149427979587
-0.0119106624726
0.00132401356503
-0.012235957792
0.00117031975244
-0.0125119050148
0.00103207563779
-0.0127434975619
0.000907847195361
-0.0129352769247
0.000796107994315
-0.0130912820058
0.000695358094101
-0.013215049251
0.000604193188025
-0.0133096423692
0.000521338396336
-0.0133776930997
0.000445661656559
-0.013421449277
0.000376170511532
-0.0134428207395
0.000312004531035
-0.0134434256672
0.000252421666079
-0.013424631185
0.000196788073952
-0.0133875920317
0.000144562908174
-0.0133332847695
9.52978880639e-05
-0.0132625344335
4.86126818173e-05
-0.0131760755176
4.26733064999e-06
-0.0130745443142
-3.79970653705e-05
-0.0129583188703
-7.81482725751e-05
-0.0128232193002
-0.000119061354373
-0.0126428345762
-0.000169443415085
-0.0124426493251
-0.000186448856095
-0.0122599408565
-0.000208333049975
-0.012100424035
-0.00024238101849
-0.0119600383906
-0.000272451801567
-0.0118400341575
-0.000299304715316
-0.0117407092312
-0.000325001604148
-0.0116619313994
-0.000349979411916
-0.011603848706
-0.000374438725951
-0.0115667357664
-0.000398759650724
-0.0115507404006
-0.000423387057426
-0.0115557300313
-0.00044875753216
-0.011581195675
-0.000475308397431
-0.0116261679991
-0.0005034932924
-0.01168913814
-0.000533783882433
-0.0117679797907
-0.000566658972618
-0.0118598791623
-0.0006025916487
-0.0119612701661
-0.000642030237012
-0.0120677839527
-0.000685377008578
-0.0121742139271
-0.000732958560384
-0.0122745103601
-0.00078499325676
-0.0123618100203
-0.000841551416787
-0.0124285176364
-0.000902515469022
-0.0124664449793
-0.00096753862741
-0.0124670201501
-0.00103601202558
-0.0124215643927
-0.00110704224911
-0.0123216343865
-0.00117945079867
-0.0121594094664
-0.00125179792703
-0.0119281010304
-0.0013224395161
-0.011622345864
-0.00138961380411
-0.0112385481219
-0.00145155910126
-0.01077513002
-0.00150664724436
-0.0102326658249
-0.00155353356912
-0.0096138851186
-0.00159127558477
-0.00892352925048
-0.00161950214737
-0.00816810537189
-0.00163837875059
-0.00735544742457
-0.00164903923386
-0.00649423074785
-0.00165264654855
-0.00559266839899
-0.00165334603043
-0.00465807563905
-0.00164985889046
-0.00369302933343
-0.0016603978508
-0.00270546804022
-0.00165006207773
-0.00169726520032
-0.00177272991805
-0.000782781285944
-0.00172388419865
4.2678413057e-05
-0.00399167826649
-0.00538353694943
-0.0060634799467
0.0134866656309
-0.00441415665937
0.00269998941398
-0.00384822747269
0.00271336431739
-0.0041040874252
0.00372591507094
-0.00480980068105
0.0040230594715
-0.00574481924738
0.00404355984853
-0.00673468360671
0.00393646566561
-0.00768647514055
0.00371584662885
-0.00856068968033
0.00342597279445
-0.0093476051584
0.00311340450192
-0.0100512762698
0.00280522203068
-0.0106806942265
0.00251430976224
-0.0112457526488
0.00224659429482
-0.0117556289237
0.00200415492096
-0.0122182431194
0.00178662384579
-0.0126401768117
0.00159224715634
-0.0130267839989
0.00141867380992
-0.0133823705311
0.0012634225754
-0.0137103879162
0.00112411167897
-0.0140136085105
0.000998563159012
-0.0142942756973
0.000884842542105
-0.0145542232179
0.000781266584659
-0.014794972465
0.000686389537144
-0.0150178065706
0.000598982074221
-0.0152238307739
0.000518004427245
-0.0154140172127
0.000442582931106
-0.0155892402153
0.00037198440413
-0.0157503051062
0.00030560052836
-0.0158979537359
0.000242917949029
-0.0160328998286
0.000183529706066
-0.0161556880362
0.000127025206378
-0.016266904917
7.31889738576e-05
-0.0163665024531
2.14172345129e-05
-0.016459043791
-2.65530602501e-05
-0.0165553573476
-7.31645240616e-05
-0.016604055434
-0.000137786778741
-0.016613576498
-0.000198849701299
-0.0165907523912
-0.000265244253564
-0.0165310318122
-0.000332212974108
-0.0164337289866
-0.000396649476144
-0.0162998551843
-0.000458918457176
-0.0161303392414
-0.0005195395556
-0.0159262147321
-0.00057860808427
-0.015688863668
-0.000636156376649
-0.0154200334536
-0.000692263010228
-0.0151218281626
-0.00074700891148
-0.0147967290765
-0.000800453020794
-0.014447624191
-0.000852643529934
-0.0140778199538
-0.000903632302942
-0.0136910347546
-0.000953487631198
-0.0132913651939
-0.00100230296005
-0.0128832269956
-0.00105020898811
-0.0124712582353
-0.00109738420483
-0.0120601857241
-0.00114406795277
-0.0116546441644
-0.00119056933355
-0.0112589538857
-0.00123727444182
-0.0108768559062
-0.00128464374311
-0.0105112225295
-0.00133320044572
-0.0101637584422
-0.00138350214215
-0.00983472648466
-0.00143609839741
-0.00952272748298
-0.0014914716797
-0.00922457485111
-0.0015499706398
-0.00893529074875
-0.00161174146431
-0.00864824864543
-0.00167667194342
-0.00835546243612
-0.00174435910274
-0.00804801387337
-0.00181410770434
-0.00771658349739
-0.0018849735229
-0.00735205648805
-0.00195581013621
-0.0069461499602
-0.00202541373371
-0.00649206291257
-0.00209246852164
-0.00598503818156
-0.00215606373759
-0.00542300009169
-0.00221468193054
-0.00480640284484
-0.00226993712301
-0.00413903095481
-0.00231722374529
-0.0034240561056
-0.00237536177756
-0.00267309215635
-0.00240101819793
-0.0018838254437
-0.00256198726183
-0.00113788827487
-0.00246980073578
-0.00030519844397
-0.00482438397328
-0.00568872557564
-0.00143054658201
0.0149172246429
-0.000961659690337
0.00223113396829
-0.0021616590243
0.00391339391359
-0.00354331189803
0.00510759340881
-0.00481393214634
0.00529369969277
-0.00595667963376
0.00518632243484
-0.00693717367574
0.00491697074226
-0.00775892195183
0.00453760315906
-0.00845017844738
0.00411723528963
-0.00903945427076
0.00370268439139
-0.00954934841631
0.00331511819675
-0.00999708439323
0.00296204549864
-0.0103953306848
0.00264483794822
-0.0107530018687
0.00236182073852
-0.011076192398
0.0021098063268
-0.0113690282696
0.00188507195313
-0.0116343060777
0.00168393774662
-0.0118739397603
0.00150303923734
-0.0120892673845
0.00133941950563
-0.0122812605254
0.00119053335552
-0.0124506604126
0.00105421681254
-0.0125980649541
0.000928642443141
-0.012723980105
0.000812273484044
-0.0128288511386
0.000703818961867
-0.0129130785016
0.00060219529848
-0.0129770267243
0.000506491870006
-0.0130210271686
0.000415943389363
-0.0130453757907
0.000329905028694
-0.0130503350592
0.000247830987229
-0.0130361104473
0.000169256210553
-0.013002897884
9.37615947547e-05
-0.0129507154293
2.09528234786e-05
-0.0128795317998
-4.98223628652e-05
-0.0127865004614
-0.000119643075277
-0.012678283353
-0.000181443019913
-0.0125793713534
-0.000236762587966
-0.0124863971063
-0.00029188988934
-0.0124048035
-0.000346905795336
-0.0123345221596
-0.000402563995152
-0.0122734715157
-0.00045777116944
-0.0122200542416
-0.000512407982983
-0.0121726631686
-0.000567003504369
-0.0121293414665
-0.000622003191347
-0.012087834805
-0.000677736240665
-0.012045645098
-0.000734525691559
-0.0120000360894
-0.000792689846606
-0.0119480544611
-0.000852505574033
-0.0118865818492
-0.000914185225334
-0.0118124151297
-0.000977866386653
-0.011722367158
-0.00104360044723
-0.0116133905627
-0.00111134208106
-0.0114827187349
-0.0011809403079
-0.0113280220233
-0.00125213765306
-0.0111475661298
-0.00132457722675
-0.0109403625765
-0.0013978232569
-0.0107062898275
-0.00147139407674
-0.0104461668337
-0.00154481053336
-0.0101617530096
-0.00161765462849
-0.00985565719798
-0.0016896352933
-0.00953113986829
-0.00176064980342
-0.00919181052912
-0.00183083223544
-0.00884123379018
-0.00190057555515
-0.00848247989696
-0.0019705208373
-0.00811766607893
-0.00204150837895
-0.00774754890821
-0.00211449629803
-0.00737122463757
-0.00219044924806
-0.00698598627638
-0.00227022662608
-0.00658738423369
-0.00235442424848
-0.00616950195143
-0.00244330556102
-0.00572549945291
-0.00253647776981
-0.00524840087748
-0.00263316642394
-0.00473241795111
-0.00273066595672
-0.00417413678392
-0.00282821757897
-0.0035753413946
-0.00291601535868
-0.00294126397889
-0.00300943632552
-0.00228964244377
-0.00305263359332
-0.00162004286387
-0.00323158339846
-0.00100287205865
-0.00308698232527
-0.000240310994817
-0.00558692951605
-0.00592904945459
5.19714458941e-05
0.0148653487691
-0.000427464055836
0.00271060548209
-0.00245263149606
0.00593858438816
-0.00409891227906
0.00675389295218
-0.00536061426522
0.00655541707363
-0.00635364248827
0.00617936280372
-0.00712485089335
0.00568818866705
-0.00773181969468
0.0051445793186
-0.00823031168025
0.00461573296168
-0.00865909030737
0.00413146710634
-0.00904231094933
0.00369834130889
-0.00939486553226
0.00331460077004
-0.00972561074912
0.00297558180908
-0.0100393662096
0.00267557265275
-0.0103384128882
0.00240884693956
-0.0106235684706
0.00217021892076
-0.0108948756915
0.00195523347115
-0.011152012971
0.00176016223581
-0.0113945340767
0.00158192322108
-0.0116220020433
0.00141798102368
-0.0118340587992
0.00126625004082
-0.0120304540987
0.00112501126488
-0.0122110534408
0.000992843074554
-0.0123758338029
0.000868566633171
-0.0125248763527
0.000751201890077
-0.0126583569535
0.000639933611339
-0.0127765392747
0.000534083608972
-0.012879766998
0.000433087749495
-0.0129684623227
0.000336478036643
-0.0130431150354
0.000243857652778
-0.0131043148772
0.000154906841483
-0.0131527402203
6.93206185905e-05
-0.0131896978636
-1.292552928e-05
-0.0132173413271
-9.20636856876e-05
-0.013223422642
-0.000175428786696
-0.0132025083238
-0.000257746362105
-0.0131554597438
-0.000339010060191
-0.0130826262751
-0.00041981269845
-0.0129855788081
-0.000499686295923
-0.0128656194563
-0.000577806495534
-0.0127244058932
-0.000653698078486
-0.0125640806359
-0.000727405631934
-0.0123870175713
-0.000799142794522
-0.0121956903533
-0.000869139492173
-0.0119926121114
-0.000937678763503
-0.0117802507924
-0.00100512467743
-0.0115609214319
-0.00107190645144
-0.0113366806768
-0.0011384954547
-0.0111092289279
-0.00120538495039
-0.0108798253067
-0.00127306824823
-0.0106492188339
-0.00134200956675
-0.0104176064462
-0.00141261063927
-0.0101846239744
-0.00148517456804
-0.00994937998348
-0.00155987232757
-0.00971053570509
-0.00163671498922
-0.00946643482449
-0.00171553898387
-0.00921527625531
-0.00179600949156
-0.00895531876366
-0.00187764915029
-0.00868509246758
-0.00195989515844
-0.00840358727572
-0.00204218540604
-0.0081103794747
-0.00212406726509
-0.0078056617766
-0.00220531758843
-0.00749014943389
-0.00228605462604
-0.00716485322378
-0.00236682339378
-0.0068307340691
-0.00244863161463
-0.00648827943743
-0.00253291760051
-0.00613705245183
-0.00262146496191
-0.00577531532666
-0.00271617043366
-0.00539976776517
-0.00281886010425
-0.00500553193468
-0.00293071835214
-0.00458643820756
-0.00305226285919
-0.00413597848328
-0.00318112647421
-0.00364839946327
-0.00331579564945
-0.00312192464379
-0.00344248927268
-0.00255811347672
-0.00357324496247
-0.00197327322683
-0.00363747363379
-0.00136867833512
-0.00383617770772
-0.00083308531585
-0.00362256796363
-0.000146870720633
-0.00627316699135
-0.00607592328101
0.000353308203043
0.0145120051768
-0.00092857061749
0.00399248534763
-0.003225938417
0.0082359625878
-0.00469744812908
0.00822541452343
-0.00570289277856
0.00756087312866
-0.00642645898947
0.00690293934246
-0.00695205043238
0.00621378905094
-0.0073590945558
0.00555163118561
-0.00770464966095
0.00496129461537
-0.00802075915567
0.00444758210892
-0.00832383559739
0.00400142211242
-0.00862159845829
0.00361236677188
-0.008916710215
0.00327069528722
-0.00920893006263
0.00296779258426
-0.00949652960365
0.00269644474587
-0.00977717573769
0.00245086124196
-0.0100484303733
0.00222648211643
-0.0103080092115
0.0020197326525
-0.0105539005977
0.00182780374597
-0.0107844061289
0.00164847301564
-0.0109981373704
0.00147996513179
-0.0111939909202
0.00132084582849
-0.0113711137424
0.00116994419874
-0.0115288675687
0.00102629583682
-0.0116667949994
0.000889101935848
-0.0117845903996
0.00075769865905
-0.0118820742854
0.0006315343362
-0.0119591737175
0.000510151000183
-0.0120159030199
0.000393168252199
-0.0120523595972
0.000280272041121
-0.0120686870334
0.000171189166351
-0.0120651125836
6.56980207117e-05
-0.0120415892873
-3.64998384205e-05
-0.0119983423827
-0.000135364541988
-0.0119451025532
-0.000228725057355
-0.0118842137341
-0.000318693482987
-0.0118167902091
-0.000406493496499
-0.0117439454866
-0.0004927185346
-0.0116658636938
-0.000577830139771
-0.0115819038897
-0.000661828799528
-0.0114909966357
-0.00074466802903
-0.0113919696503
-0.000826494986056
-0.0112836204427
-0.00090755381554
-0.0111647533577
-0.000988067320133
-0.0110342621184
-0.00106822948633
-0.0108912126649
-0.00114823188508
-0.0107349029014
-0.00122827209718
-0.0105649014259
-0.00130855053628
-0.0103810685977
-0.00138926901506
-0.0101835556292
-0.00147062975537
-0.00997277987098
-0.00155283112309
-0.00974937568737
-0.00163605763464
-0.00951412515919
-0.00172046493116
-0.0092678741185
-0.00180616006748
-0.00901144387
-0.00189317886418
-0.00874555073091
-0.00198146260783
-0.00847074855622
-0.00207083912932
-0.00818740838567
-0.00216101378528
-0.00789574469618
-0.00225158048155
-0.00759588924895
-0.00234205974446
-0.00728800045292
-0.00243197240392
-0.00697238110074
-0.00252095084464
-0.00664956881961
-0.0026088785525
-0.00632035283987
-0.00269604885798
-0.00598568547755
-0.00278330640996
-0.00564647250617
-0.00287213617802
-0.00530323086241
-0.0029647103155
-0.00495571456095
-0.00306368914762
-0.00460251016762
-0.00317206519252
-0.00424077191872
-0.00329245632302
-0.00386612614769
-0.00342690688913
-0.00347319118203
-0.00357405915862
-0.00305618240134
-0.0037328017941
-0.00261157266602
-0.00388709664741
-0.00213738268403
-0.00404743444247
-0.00164568183963
-0.00412917352439
-0.00113457007136
-0.00434728947482
-0.000705926641373
-0.00405122447087
-0.000104450652519
-0.0068746453098
-0.0061803845751
0.000346115930886
0.0141659191713
-0.00149478147587
0.00583339104029
-0.00374912266653
0.0104903094173
-0.0049031061496
0.00937940515845
-0.00563588397925
0.00829365913569
-0.00613384920964
0.00740091305053
-0.00649089861607
0.00657084687981
-0.00678545222133
0.00584619274728
-0.0070616174689
0.00523746734852
-0.00733904180152
0.00472501328785
-0.00762521904149
0.00428760558907
-0.00792143905848
0.00390859224058
-0.0082256622919
0.00357492309518
-0.00853427269993
0.00327640647039
-0.00884314927979
0.00300532353016
-0.0091482556963
0.00275596839083
-0.00944593103768
0.00252415652457
-0.00973300992712
0.00230680880697
-0.0100068477339
0.00210163683767
-0.0102652953578
0.00190691387374
-0.0105066504583
0.00172131125868
-0.0107296004636
0.00154378463597
-0.0109331665978
0.0013734967765
-0.0111166530376
0.00120976638552
-0.0112796037624
0.00105203432477
-0.0114217667388
0.000899840895562
-0.0115430663694
0.000752810726001
-0.0116435809753
0.000610639883479
-0.0117235307557
0.000473089746233
-0.0117832605774
0.000339971043447
-0.0118232584113
0.000211153666331
-0.0118441096466
8.65135878263e-05
-0.0118466411189
-3.40064386382e-05
-0.0118311913207
-0.000150854702234
-0.0117946374352
-0.00026532092278
-0.0117370074847
-0.000376366657894
-0.0116591087741
-0.000484436314317
-0.0115621676945
-0.000589704380408
-0.0114478202066
-0.00069222265427
-0.0113177275041
-0.000791966566985
-0.0111735143984
-0.000888925840095
-0.0110168110962
-0.000983242423666
-0.0108491962969
-0.0010752118148
-0.0106720904635
-0.00116521523108
-0.0104866772927
-0.00125368330259
-0.0102938601894
-0.00134108804379
-0.0100942402672
-0.00142792923856
-0.00988811618947
-0.00151470986722
-0.00967550929248
-0.00160190901624
-0.00945621285799
-0.0016899570427
-0.00922985941215
-0.00177921305111
-0.00899599798498
-0.00186994510355
-0.00875417187256
-0.00196231459126
-0.00850398674099
-0.00205636622372
-0.00824516007754
-0.0021520240442
-0.00797754600892
-0.00224909271012
-0.00770113402198
-0.00234726475234
-0.00741602909001
-0.00244613004356
-0.00712242333396
-0.00254519538772
-0.00682057752375
-0.00264391266433
-0.00651082655627
-0.00274172858346
-0.00619361353776
-0.00283816727528
-0.00586955157095
-0.00293294235475
-0.00553947538948
-0.00302612519447
-0.00520445557107
-0.00311832512003
-0.00486574140582
-0.00321084767924
-0.00452454423525
-0.00330590389685
-0.00418179987014
-0.00340642877913
-0.00383777535168
-0.00351608453971
-0.00349182524725
-0.00363840063786
-0.00314213256637
-0.00377659360326
-0.00278604559593
-0.00393014008832
-0.00242054775324
-0.0040982947387
-0.00204411257744
-0.00426352875582
-0.00165539749793
-0.00443614883732
-0.0012652666137
-0.00451930530222
-0.00086741612085
-0.00474514312081
-0.000567539745387
-0.00435110098262
-6.50201297063e-05
-0.00737718324597
-0.00624541524385
0.000258281466106
0.0139075933724
-0.00202365415975
0.0081153119283
-0.00401883091772
0.0124854834066
-0.00481006612529
0.0101706424989
-0.00531646685803
0.00880006499678
-0.00565926921408
0.00774372228286
-0.00592305964865
0.00683464489159
-0.00617091549215
0.00609405638153
-0.00642956748887
0.0054961268963
-0.00670736131872
0.00500281437747
-0.00700502216553
0.00458527323056
-0.00731946226982
0.00422303867288
-0.0076457234047
0.00390118991272
-0.00797825850821
0.0036089465169
-0.00831166595557
0.00333873497257
-0.00864104347266
0.00308534881208
-0.00896212965567
0.00284524433806
-0.00927133185028
0.0026160112191
-0.00956569250739
0.002395996167
-0.00984282540962
0.00218404378597
-0.010100841276
0.00197932238898
-0.01033827411
0.00178121089843
-0.0105540140144
0.00158922823013
-0.0107472490264
0.00140299101151
-0.0109174164699
0.00122218943033
-0.0110641633531
0.00104657346392
-0.0111873151085
0.000875946170682
-0.0112868507966
0.000710157261557
-0.0113628862693
0.000549104884463
-0.011415657881
0.000392720365084
-0.0114455218456
0.000240993462775
-0.0114529286537
9.38944751734e-05
-0.0114385403777
-4.84223215313e-05
-0.0114036075242
-0.000185816655883
-0.0113507006353
-0.000318257834317
-0.0112805229684
-0.000446574877376
-0.0111939959355
-0.000570994263114
-0.01109188163
-0.00069184963535
-0.0109747796117
-0.000809355489916
-0.010843172071
-0.000923604484482
-0.0106974789056
-0.0010346487838
-0.0105381590026
-0.00114259123612
-0.0103657761172
-0.00124762259693
-0.0101810083538
-0.00135000965985
-0.00998463283932
-0.00145008412449
-0.00977749903446
-0.00154824563507
-0.00956048773873
-0.00164496268689
-0.00933445733687
-0.001740760677
-0.0091001866042
-0.00183619831009
-0.00885832455644
-0.00193183574561
-0.00860935591526
-0.00202819635643
-0.0083535884851
-0.00212572520108
-0.00809116537222
-0.00222474831886
-0.00782210047669
-0.00232543973013
-0.00754633077875
-0.0024278003417
-0.00726377654075
-0.00253165163524
-0.00697439386175
-0.00263665026762
-0.00667821574303
-0.00274230928153
-0.00637536790573
-0.00284804273176
-0.00606606948697
-0.0029532091185
-0.00575062728428
-0.00305716736219
-0.00542943280939
-0.00315935718076
-0.00510299563192
-0.00325937351277
-0.00477198311427
-0.00335713075362
-0.00443727048241
-0.0034530293682
-0.00409999178102
-0.00354811709601
-0.00376139373147
-0.00364449181441
-0.00342281384911
-0.00374499815543
-0.00308535474146
-0.00385353320042
-0.00274995924024
-0.00397378542092
-0.00241688095803
-0.00410966191936
-0.00208635851058
-0.00426065371283
-0.00175941088596
-0.00442523564907
-0.00143900929097
-0.00458392755433
-0.00112743496237
-0.0047477229753
-0.000835500945289
-0.00481124294666
-0.000559904173578
-0.00502074164406
-0.000390037484403
-0.00452097971635
7.81799412245e-06
-0.00777505521203
-0.00623760486619
0.000132438339548
0.0137751601148
-0.00242727632323
0.0106750209967
-0.00402640716811
0.0140846090945
-0.00449948641269
0.0106437209311
-0.00486137164352
0.00916195291963
-0.00512049040342
0.00800284616537
-0.00534981504348
0.0070639761363
-0.0055933205321
0.00633756899956
-0.00586324367185
0.00576605729374
-0.00616062256566
0.00530020028633
-0.0064821556353
0.00490681305258
-0.00682225197502
0.00456314133923
-0.00717441597397
0.00425335980701
-0.00753219186914
0.00396672769223
-0.00788965495398
0.00369620264961
-0.00824161343896
0.00343731100288
-0.00858365773719
0.00318729136336
-0.00891213189203
0.00294448695201
-0.00922406447887
0.00270792910612
-0.00951708356814
0.00247706187212
-0.00978932978281
0.00225156619591
-0.0100393759956
0.00203125320706
-0.0102661569501
0.00181600377084
-0.010468910072
0.00160573715117
-0.010647126786
0.00140039762208
-0.0108005135822
0.0011999501564
-0.0109289614932
0.00100438245836
-0.0110325221042
0.000813704685002
-0.0111113926238
0.000627960755866
-0.0111658989202
0.000447210553544
-0.0111965117434
0.00027158893259
-0.0112038075869
0.000101171795971
-0.0111886045181
-6.36449719064e-05
-0.0111509363424
-0.000223505275488
-0.0110908400453
-0.000378374811087
-0.0110092039186
-0.000528231791677
-0.0109070252008
-0.000673193601957
-0.0107855497098
-0.000813345461561
-0.0106461450919
-0.000948779916428
-0.0104901894844
-0.00107957926169
-0.0103190107846
-0.00120584581438
-0.0101338698812
-0.00132774952542
-0.00993595598514
-0.0014455527801
-0.00972637510552
-0.00155960562898
-0.00950613973284
-0.00167033328289
-0.00927616759596
-0.00177823015902
-0.00903728544967
-0.00188385575971
-0.00879023126108
-0.00198782423747
-0.00853565221913
-0.00209078515066
-0.00827409880617
-0.00219339529802
-0.00800601752147
-0.00229628214932
-0.00773174511629
-0.00240000041917
-0.00745151032361
-0.00250498430041
-0.00716544554606
-0.00261150405284
-0.00687361134811
-0.00271963254301
-0.00657603649871
-0.0028292229958
-0.00627275705203
-0.00293992485501
-0.00596386693821
-0.0030511932186
-0.00564954503655
-0.00316235734501
-0.00533007163822
-0.00327267396611
-0.005005829943
-0.00338139958988
-0.00467728214953
-0.00348789426671
-0.00434499030159
-0.00359165364769
-0.00400961140867
-0.00369249686384
-0.00367193537108
-0.0037906914063
-0.00333305215501
-0.0038869854103
-0.00299415290491
-0.00398337557637
-0.00265665439093
-0.00408248173618
-0.0023219445454
-0.00418822865259
-0.00199246532582
-0.00430325177923
-0.00166992148678
-0.0044321941565
-0.00135757877778
-0.00457298695477
-0.00106194790853
-0.00472086085521
-0.000791006883548
-0.00485486555809
-0.000554763850615
-0.00498396954429
-0.000354092964563
-0.0050119161507
-0.000233773325876
-0.00514106865981
-0.000159698750817
-0.00459506269203
0.000182286065561
-0.00811705215428
-0.00605533576816
3.71038925997e-06
0.0137714083675
-0.00269170995663
0.0133704206199
-0.00383960306118
0.0152324924433
-0.00408628176859
0.0108903955429
-0.00437813741759
0.00945380906174
-0.00460083161085
0.00822554401704
-0.00482742997473
0.00729057990999
-0.0050844720873
0.00659461736054
-0.00537489397476
0.00605648550424
-0.00569586597745
0.00562117847479
-0.0060417725075
0.00525272540167
-0.00640556042116
0.00492693474398
-0.00677991661157
0.00462772101793
-0.00715798102102
0.00434479664844
-0.0075336683371
0.00407189385675
-0.00790176724689
0.00380541309622
-0.00825792595597
0.00354345236626
-0.00859858292386
0.00328514527296
-0.00892087274686
0.00303021919025
-0.00922252725477
0.00277871552134
-0.00950178181044
0.00253081865769
-0.00975729230066
0.00228676037303
-0.0099880646289
0.00204677146461
-0.0101933960815
0.00181106270652
-0.0103728276888
0.00157982202035
-0.0105261060338
0.00135322007005
-0.0106531527529
0.00113141948648
-0.0107540412907
0.000914582390158
-0.0108289785689
0.000702886043801
-0.010878291338
0.000496510371218
-0.0109024158706
0.00029569959753
-0.0109018710072