/*--------------------------------*- C++ -*----------------------------------*\
| =========                 |                                                 |
| \\      /  F ield         | OpenFOAM: The Open Source CFD Toolbox           |
|  \\    /   O peration     | Version:  v1806                                 |
|   \\  /    A nd           | Web:      www.OpenFOAM.com                      |
|    \\/     M anipulation  |                                                 |
\*---------------------------------------------------------------------------*/
FoamFile
{
    version     2.0;
    format      ascii;
    class       surfaceScalarField;
    location    "700";
    object      phia;
}
// * * * * * * * * * * * * * * * * * * * * * * * * * * * * * * * * * * * * * //

dimensions      [0 3 -1 0 0 0 0];
oriented        oriented;


internalField   nonuniform List<scalar> 
12640
(
-0.00325858448606
0.00325876286757
-0.00698707079409
0.0037287309774
-0.0108687369092
0.00388191935672
-0.0132558847898
0.00238736991165
-0.0142997236738
0.00104412405626
-0.015918328421
0.00161887694502
-0.0171453928173
0.00122727716442
-0.0181709964145
0.00102578710241
-0.0190279956782
0.000857169375281
-0.019738240022
0.000710406170038
-0.020329846434
0.000591759833267
-0.0208252925885
0.000495595614281
-0.0212406312402
0.000415483765707
-0.0215882016685
0.000347715692098
-0.0218782653655
0.000290208467085
-0.0221195115332
0.000241394207193
-0.0223192411873
0.000199880034199
-0.0224835261908
0.000164440732735
-0.022617395539
0.00013402937321
-0.0227249936639
0.000107764837155
-0.0228097303965
8.49090796592e-05
-0.022874400549
6.48500266245e-05
-0.0229212997612
4.70856311217e-05
-0.0229523143421
3.12090179709e-05
-0.0229690072319
1.68944665158e-05
-0.022972681466
3.88406944659e-06
-0.0229644413214
-8.02280008348e-06
-0.0229452380205
-1.89776196329e-05
-0.0229159128032
-2.90917898993e-05
-0.022877251958
-3.84191274297e-05
-0.0228300495721
-4.69527759645e-05
-0.0227754762617
-5.43155009967e-05
-0.0227154900426
-5.97202127633e-05
-0.0226538668344
-6.13489186193e-05
-0.0225855024952
-6.80820505754e-05
-0.0224585444626
-0.000126668659189
-0.0222771436128
-0.000181104440686
-0.0220509918296
-0.000225849710594
-0.0218005723894
-0.000250111632631
-0.021534371308
-0.000265889140314
-0.0212583214993
-0.000275733545313
-0.0209760960008
-0.000281906953475
-0.0206901070299
-0.000285667955047
-0.0204020646054
-0.000287721272023
-0.0201133053449
-0.000288437737137
-0.0198249936258
-0.000287992318127
-0.0195382186843
-0.000286457349787
-0.0192540540867
-0.000283851345049
-0.0189735912748
-0.000280153478258
-0.0186979770025
-0.000275311315506
-0.0184284356107
-0.000269244259678
-0.0181662959045
-0.000261850696267
-0.0179129997126
-0.000253014600322
-0.0176701097335
-0.000242617879918
-0.0174392914661
-0.000230554791491
-0.0172222855013
-0.000216752929761
-0.0170208461139
-0.000201195754146
-0.0168366642252
-0.000183949212577
-0.0166712553504
-0.000165185946468
-0.0165258348645
-0.000145208609646
-0.0164011676795
-0.000124464980123
-0.01629741921
-0.000103557009017
-0.0162139991227
-8.32378266323e-05
-0.0161494258357
-6.44010989473e-05
-0.0161011996684
-4.80624048492e-05
-0.0160657093357
-3.53357237151e-05
-0.0160381404736
-2.74217735954e-05
-0.0160124305394
-2.55709815746e-05
-0.0159811477621
-3.11503164721e-05
-0.0159355718781
-4.54499971869e-05
-0.0158652411124
-7.02099372894e-05
-0.0157590735609
-0.000106050358021
-0.0156026706754
-0.000156289834355
-0.0153880250917
-0.000214531299002
-0.0150886741913
-0.000299244409833
-0.0147257913942
-0.000362771377141
-0.0141043158896
-0.000621372227154
-0.0132814172228
-0.000822810163323
-0.00901745527225
-0.004263693002
-0.0090173623644
-0.0014046227444
0.00466374055431
-0.00454817310687
0.00687266578691
-0.00677150749488
0.00610557729761
-0.0098075560627
0.00542359078454
-0.0132321811219
0.00446887172235
-0.0154732888161
0.00386007664777
-0.0176279027838
0.00338198073587
-0.019645543398
0.00304351233938
-0.0215503081782
0.00276202179499
-0.0233457407078
0.00250592302297
-0.0250234664184
0.00226957031347
-0.0265796316979
0.00205184262778
-0.0280156246972
0.00185155848802
-0.0293358883956
0.00166805996746
-0.0305464951362
0.00150089672223
-0.031654317462
0.00134929907869
-0.0326664639881
0.00121211119248
-0.0335899056131
0.00108796989266
-0.0344312551259
0.000975469494498
-0.0351966508581
0.000873255571819
-0.0358917119473
0.00078006902345
-0.0365215282031
0.000694770694768
-0.0370906809387
0.000616347224233
-0.0376032684043
0.000543911794465
-0.0380629466877
0.000476692940428
-0.0384729617114
0.000414026416315
-0.0388361932539
0.000355341259827
-0.0391551823241
0.000300151623099
-0.0394321829693
0.000248054464221
-0.039669163239
0.000198714760758
-0.0398678749477
0.000151918123497
-0.040029456476
0.00010743347518
-0.0401547706419
6.57672706537e-05
-0.0402456650566
2.97268854674e-05
-0.0403352658806
2.17056020884e-05
-0.0404892125554
2.74718571639e-05
-0.0406327697346
-3.73495959124e-05
-0.0407280916213
-0.000130324860735
-0.0407678840916
-0.000210113349996
-0.0407468563661
-0.000286707196856
-0.0406605150362
-0.000361863468555
-0.0405066042888
-0.000435604163248
-0.0402833427427
-0.00050871558251
-0.0399888377478
-0.000582012107726
-0.0396210668091
-0.000655995585057
-0.0391779415072
-0.000730906174553
-0.0386573612266
-0.000806828677901
-0.0380572634262
-0.000883743580058
-0.037375681334
-0.000961533801507
-0.0366108175785
-0.00103997817425
-0.0357611313441
-0.00111873849999
-0.0348254486717
-0.00119734739624
-0.0338030922481
-0.00127519081136
-0.0326940417785
-0.00135149493138
-0.031499116355
-0.00142531313694
-0.0302201839077
-0.00149552548883
-0.0288603796993
-0.00156084671485
-0.0274243276042
-0.00161985530203
-0.0259183355129
-0.00167103870448
-0.0243505477813
-0.0017128640077
-0.0227310214235
-0.00174386544977
-0.0210717076319
-0.0017627514179
-0.0193863149596
-0.00176851708264
-0.0176900502139
-0.00176055822867
-0.0159992386553
-0.00173877164026
-0.014330845294
-0.00170363174483
-0.0127019257023
-0.0016562486058
-0.0111290387056
-0.00159836934763
-0.00962766891453
-0.00153243525881
-0.00821165034022
-0.00146138667658
-0.00689264822349
-0.00138913231218
-0.00567961868808
-0.00131900173702
-0.00457824753095
-0.00125758221891
-0.00359039779499
-0.00120230457768
-0.00271125449534
-0.0011783072503
-0.00193372318025
-0.00114023281442
-0.00121066329422
-0.00134435589787
-0.000560239468954
-0.00147313934744
0.000563232962299
-0.00538710311072
-0.00845404003868
-0.00608895596045
0.01075284267
-0.00798165852372
0.0087655658958
-0.00786140803538
0.00598544526036
-0.00809117567952
0.00565344657816
-0.00879921107035
0.00517697537463
-0.00974909044143
0.00481001232892
-0.0109462055164
0.00457914336316
-0.0122369585117
0.00433431024658
-0.0135097670742
0.0040348730041
-0.0147050258144
0.00370122347041
-0.0157949298326
0.00335951376775
-0.016769743021
0.00302669318665
-0.0176301767258
0.00271202709861
-0.0183822903614
0.00242020625602
-0.0190344050147
0.00215304221772
-0.0195954902467
0.00191041340423
-0.0200743468943
0.00169099609283
-0.0204791876619
0.0014928378814
-0.0208174382348
0.00131374742818
-0.0210956773197
0.00115152171312
-0.0213196516574
0.00100407144734
-0.0214943337578
0.000869481246717
-0.0216239935165
0.000746037238999
-0.0217122792103
0.000632228700131
-0.0217622941651
0.000526741570306
-0.021776673507
0.00042844089569
-0.021757651631
0.000336357541994
-0.0217071260518
0.000249666095117
-0.0216267143387
0.000167686270203
-0.0215177979885
8.98441255346e-05
-0.0213816230187
1.57925987345e-05
-0.0212192892743
-5.48484060381e-05
-0.0210314864881
-0.000121979793706
-0.0208114426954
-0.000190258599868
-0.0205156501285
-0.000274025741009
-0.0201853087206
-0.000302807212714
-0.0198838389579
-0.000338755318665
-0.0196197567406
-0.000394342658585
-0.0193866383759
-0.000443166375961
-0.0191866738311
-0.000486606494922
-0.0190204474939
-0.000528024503869
-0.0188878627754
-0.000568124216808
-0.018789276337
-0.000607238187351
-0.0187252339314
-0.00064599180921
-0.0186960549594
-0.000685113471053
-0.0187015835463
-0.000725318004844
-0.0187410337649
-0.000767321109894
-0.0188128576847
-0.000811864039011
-0.0189146229365
-0.000859715567167
-0.0190428952938
-0.000911654634801
-0.0191931351905
-0.000968450248939
-0.0193596038583
-0.00103083211351
-0.019535292218
-0.00109945865965
-0.0197118727771
-0.00117487216065
-0.0198796957917
-0.001257450576
-0.020027835583
-0.0013473475146
-0.0201442132877
-0.00144443323302
-0.0202158025051
-0.00154823143044
-0.020228939513
-0.00165786912817
-0.0201697327231
-0.00177203909645
-0.0200245732133
-0.00188899497505
-0.0197807156749
-0.00200657953323
-0.0194269015016
-0.00212230309971
-0.0189539670084
-0.00223346471414
-0.0183553881993
-0.00233732316195
-0.0176277006673
-0.00243129164616
-0.0167707532505
-0.00251316852106
-0.0157877757984
-0.00258131844407
-0.0146852285193
-0.00263495361423
-0.0134724881695
-0.00267409631757
-0.0121612293488
-0.00270035869206
-0.0107647489977
-0.00271544616518
-0.00929594210462
-0.00272635147844
-0.00776658130123
-0.00273162169101
-0.00618097539614
-0.00276387243935
-0.00455192477035
-0.00276923623369
-0.00288442287748
-0.00301181929446
-0.00136682250821
-0.00299072084733
-8.91706870047e-06
-0.00674490476341
-0.00846296436696
-0.0112899007175
0.0220431428666
-0.00768629969607
0.00516210122987
-0.00609259981271
0.00439182332817
-0.00631487280894
0.00587577900735
-0.00746227932523
0.00632442798546
-0.0090167688359
0.00636453555257
-0.0106662440825
0.00622864460647
-0.0122497067275
0.00591779381982
-0.0137045449114
0.00548972912084
-0.0150188920257
0.00501558545115
-0.0162001209476
0.00454075425565
-0.0172618419857
0.00408842208441
-0.0182191822596
0.00366937096686
-0.0190864601225
0.00328748362655
-0.0198760954162
0.00294267240333
-0.0205983942931
0.00263270323392
-0.0212617500993
0.00235433835765
-0.021872945151
0.00210401589192
-0.0224374488387
0.00187822994688
-0.0229596804662
0.00167372923453
-0.0234432377448
0.00148760096927
-0.0238910810012
0.00131729440613
-0.0243056844685
0.00116060747401
-0.0246891518013
0.00101566104517
-0.0250433105373
0.000880862693067
-0.0253697826434
0.000754874179491
-0.025670040117
0.000636574045381
-0.0259454509712
0.000525035247583
-0.0261972869659
0.000419478807276
-0.0264267812289
0.000319294506628
-0.0266348951747
0.000223861123408
-0.0268226604642
0.000132871254877
-0.0269900461986
4.53590871091e-05
-0.0271445155651
-3.58369237401e-05
-0.0273049181222
-0.000113672758467
-0.0273857729531
-0.000222003331804
-0.0274004485394
-0.000324132898329
-0.0273602146001
-0.000434631411844
-0.0272576853696
-0.000545752527761
-0.0270919277932
-0.000652422804968
-0.0268647726066
-0.000755240316017
-0.026577915842
-0.000855043461231
-0.0262332340985
-0.000951983914937
-0.0258331778721
-0.00104611371204
-0.0253807975537
-0.00113756038879
-0.0248797264565
-0.00122645701421
-0.0243342099673
-0.00131290568908
-0.0237491460111
-0.00139699682921
-0.0231300964596
-0.00147883328134
-0.0224832684944
-0.00155855080787
-0.0218154536763
-0.00163633172904
-0.0211339285264
-0.0017124232224
-0.0204462983521
-0.00178715243387
-0.0197602871218
-0.00186094557612
-0.0190834566963
-0.00193434015271
-0.0184228655363
-0.00200799580958
-0.0177846621662
-0.00208269021924
-0.0171736414755
-0.0021593032745
-0.0165927819793
-0.00223877597405
-0.0160428161225
-0.00232204954646
-0.0155218734957
-0.00240997825169
-0.0150252604862
-0.00250323021875
-0.0145454154151
-0.00260218178802
-0.0140720827813
-0.00270682773462
-0.0135927102399
-0.00281672183462
-0.0130930653323
-0.00293095911979
-0.0125580264174
-0.00304822549144
-0.0119725117573
-0.00316684721131
-0.0113224753805
-0.00328499920208
-0.0105959745779
-0.00340060172061
-0.00978412711758
-0.00351220489201
-0.00888226728729
-0.00361729972335
-0.00788993181743
-0.00371867372072
-0.00681246525651
-0.00380907299481
-0.00565513487635
-0.00392117976893
-0.00443758564819
-0.00398676802917
-0.00315815269206
-0.00429123152307
-0.00194580923882
-0.00420302175388
-0.000576446874728
-0.00811429346362
-0.00903938982417
-0.00258312322313
0.0246262908445
-0.00135770317513
0.00393673392362
-0.00312662860303
0.00616079996091
-0.00533405914304
0.0080832525655
-0.00741959068197
0.00840999333124
-0.00932332511242
0.00826829561228
-0.0109725156076
0.00787785395221
-0.0123648452871
0.00731013771729
-0.0135442334994
0.00666912783892
-0.0145574913264
0.00602885060045
-0.0154411609258
0.00542442780641
-0.0162222888249
0.0048695501502
-0.0169206303154
0.0043677086047
-0.0175502458991
0.00391709075137
-0.0181208735383
0.00351328706982
-0.0186391631852
0.00315097481853
-0.0191096639187
0.00282481635257
-0.019535535523
0.0025298595197
-0.0199190306245
0.00226169248573
-0.0202618173699
0.00201647826089
-0.020565188731
0.00179093026945
-0.0208301982422
0.00158225691962
-0.0210577415034
0.00138809972145
-0.0212486068463
0.00120647073006
-0.0214035020171
0.00103569854813
-0.0215230701303
0.000874378651396
-0.0216078960741
0.00072133303323
-0.0216585045692
0.000575572748
-0.0216753656374
0.000436265801505
-0.0216588565415
0.000302707453545
-0.0216093466438
0.000174270304224
-0.0215269178458
5.0357820085e-05
-0.0214116447041
-7.00016917901e-05
-0.0212590264546
-0.000188546584034
-0.0210787771501
-0.00029401724325
-0.0209133386301
-0.000387540573947
-0.0207568690031
-0.00048070430863
-0.0206182717748
-0.000573333598889
-0.0204974641514
-0.000666667895837
-0.0203910321151
-0.000758965139947
-0.0202963361823
-0.000850048859062
-0.020210716226
-0.000940777764123
-0.0201309471838
-0.00103186891897
-0.0200533270654
-0.00112385051699
-0.0199737663187
-0.00121723853786
-0.019887801917
-0.00131253839409
-0.0197906373979
-0.00141018686203
-0.0196772324997
-0.00151051674977
-0.0195424369378
-0.00161374244169
-0.0193811547949
-0.00171994373996
-0.0191885431886
-0.00182905163148
-0.0189602346896
-0.00194083614923
-0.018692581098
-0.00205490701049
-0.018382897497
-0.0021707254328
-0.0180296930688
-0.00228763663703
-0.017632855399
-0.00240492020075
-0.0171937632254
-0.00252186439939
-0.0167152871601
-0.00263785568961
-0.0162016539604
-0.00275248054926
-0.0156581477004
-0.00286562146255
-0.0150906499476
-0.00297753662854
-0.0145050344117
-0.00308890075435
-0.0139064664074
-0.00320079977696
-0.0132986737776
-0.00331466482689
-0.0126832766824
-0.00343215836034
-0.0120592685088
-0.0035550012724
-0.0114227218456
-0.00368480109415
-0.0107668020488
-0.00382279058485
-0.010082127187
-0.00396969257247
-0.00935757076134
-0.00412517105502
-0.00858146769189
-0.00428831553263
-0.00774374071947
-0.00445502814289
-0.00683794474467
-0.00462446734381
-0.0058661243077
-0.00478088472369
-0.00483655933476
-0.00495073759066
-0.00377878323798
-0.00504453044258
-0.00269385252508
-0.00537615379127
-0.0016939669938
-0.00520292544202
-0.000438259452585
-0.00936996701682
-0.00947767211892
-0.000143567829269
0.0247700143541
-0.000541620648695
0.00433484573572
-0.0037297240053
0.009348941309
-0.00639680890545
0.0107503686353
-0.0084668480208
0.0104800579691
-0.010120127793
0.00992159544449
-0.0114235111929
0.00918125296565
-0.01246448757
0.00835112605466
-0.0133312004406
0.00753584985554
-0.0140853725532
0.00678302917773
-0.014764988601
0.00610404756669
-0.0153929814657
0.00549754368071
-0.0159828214202
0.00495754568509
-0.0165418773972
0.00447614006449
-0.0170737253242
0.00404512396512
-0.0175797339142
0.00365696798113
-0.018060087521
0.00330514958426
-0.0185144094259
0.00298415630289
-0.0189421271121
0.00268937978881
-0.0193426737501
0.00241698963599
-0.0197155928252
0.00216380870809
-0.020060583176
0.00192720177042
-0.0203775139374
0.00170497963115
-0.0206664213506
0.00149532253547
-0.0209275011643
0.0012967175035
-0.0211610973856
0.00110790940377
-0.0213676948011
0.000927859852282
-0.021547909746
0.00075571259175
-0.021702489532
0.000590765422143
-0.0218322985711
0.000432431831416
-0.0219383668079
0.000280248854423
-0.0220218914557
0.000133788454212
-0.0220850726472
-6.91942917584e-06
-0.0221316266172
-0.000142096462825
-0.0221414571983
-0.000284295211702
-0.0221046495001
-0.000424460493271
-0.0220229883152
-0.000562481275254
-0.02189707619
-0.000699364647117
-0.0217296082331
-0.000834257493029
-0.0215229032419
-0.000965794139722
-0.021279874379
-0.001093203416
-0.0210042220923
-0.00121655714237
-0.0207000169801
-0.00133620161684
-0.0203714802689
-0.00145251508138
-0.0200228788305
-0.00156596704075
-0.0196583822327
-0.00167716111206
-0.019281885163
-0.00178680797278
-0.0188968362
-0.00189568759937
-0.0185060814357
-0.00200461579463
-0.0181117318911
-0.00211440858922
-0.0177150593408
-0.00222583511285
-0.0173164375336
-0.00233956462569
-0.0169153365726
-0.00245610939853
-0.0165103856192
-0.00257577278556
-0.01609950649
-0.00269860631163
-0.0156801237796
-0.00282438791943
-0.0152494390841
-0.00295262792828
-0.0148047531949
-0.00308261465067
-0.0143437976559
-0.00321350296552
-0.0138650327104
-0.00334444756657
-0.013367851083
-0.00347477343513
-0.0128526369959
-0.00360416451344
-0.0123206320874
-0.00373284868954
-0.0117735962175
-0.00386173943983
-0.0112132687025
-0.00399251925375
-0.0106407038857
-0.0041275944567
-0.0100555305182
-0.00426999788149
-0.00945530208898
-0.00442303770155
-0.00883502407801
-0.00458998485338
-0.00818704855884
-0.00477315627362
-0.00750141594608
-0.00497395351055
-0.00676729308734
-0.00518915237493
-0.00597472696259
-0.00541703089368
-0.00511997930238
-0.00563562967703
-0.0042048530495
-0.00586585744637
-0.00325591137816
-0.00599347029982
-0.0022757254161
-0.00635633683388
-0.00140815308788
-0.00607048130525
-0.000273916430963
-0.0105042456803
-0.00975159111812
0.000494063051406
0.0242758921863
-0.00137945355831
0.00620836198232
-0.0050817290433
0.0130512329682
-0.00747006923303
0.0131387277062
-0.00911294229815
0.012122949381
-0.0103199942116
0.0111286639332
-0.0112216941351
0.0100829670967
-0.0119396159325
0.00906905996653
-0.0125613920497
0.00815763599043
-0.0131356339879
0.00735727927528
-0.0136867132827
0.00665513297409
-0.0142258048303
0.00603663912417
-0.0147565926393
0.00548833482246
-0.0152785638217
0.00499810960313
-0.0157890937659
0.00455564899225
-0.0162847010974
0.0041525666735
-0.0167617506294
0.00378218661554
-0.0172168250236
0.00343921392092
-0.0176469010962
0.00311943483888
-0.0180494126698
0.00281947556854
-0.0184222486613
0.00253661460315
-0.0187637199052
0.0022686381206
-0.0190725117345
0.00201373202838
-0.0193476350455
0.0017704015526
-0.019588379086
0.00153741270825
-0.0197942708528
0.00131374747316
-0.0199650387775
0.0010985695476
-0.0201005850038
0.000891195716327
-0.0202009567677
0.000691069499976
-0.0202663412292
0.000497743690863
-0.0202970041827
0.000310834663995
-0.0202933441041
0.000130046412126
-0.0202552752777
-4.50747466931e-05
-0.0201830400861
-0.000214422937451
-0.0200931430996
-0.000374287559753
-0.01998958048
-0.000528121675153
-0.0198741745504
-0.00067798860956
-0.0197488063885
-0.000824836597786
-0.0196137601936
-0.000969409497537
-0.019467965579
-0.00111169595267
-0.0193096607185
-0.00125161652021
-0.0191369212681
-0.00138940511766
-0.0189477828086
-0.00152544856221
-0.0187403074391
-0.00166009805895
-0.0185127213666
-0.00179365956044
-0.0182635498838
-0.00192643702754
-0.0179917130667
-0.00205874697374
-0.0176965852836
-0.00219091449851
-0.0173780247209
-0.00232327222877
-0.0170363660731
-0.00245615911964
-0.0166723752567
-0.00258991371315
-0.0162871656602
-0.00272485727454
-0.0158820846113
-0.00286126873544
-0.0154585788203
-0.00299935160903
-0.0150180561616
-0.00313919680206
-0.0145617614279
-0.00328074495794
-0.0140906897892
-0.00342375649987
-0.0136055574451
-0.00356779841204
-0.0131068441879
-0.00371226237214
-0.0125949107635
-0.00385642187885
-0.0120701698124
-0.00399955031561
-0.0115332757443
-0.00414108963728
-0.0109852685229
-0.00428088237414
-0.0104276174182
-0.00441941251703
-0.00986208209855
-0.00455807224349
-0.00929040904357
-0.00469928120376
-0.00871378537896
-0.00484663122586
-0.00813222042324
-0.00500460926828
-0.0075438806229
-0.00517832769501
-0.00694460496497
-0.00537243259125
-0.00632764997541
-0.00559090601427
-0.00568436286911
-0.00583243527524
-0.00500506734692
-0.006096321196
-0.0042834342047
-0.00635725725976
-0.00351544219441
-0.00663384746103
-0.0027208119526
-0.00678809700585
-0.00189554915328
-0.00718159845734
-0.00120453201846
-0.00676152212206
-0.00020542878664
-0.0115033480142
-0.00995703933264
0.000540495648528
0.0237354332928
-0.00233536766881
0.00908423420998
-0.00599185756189
0.016707729314
-0.0078608308119
0.0150077111856
-0.0090636509527
0.0133257819106
-0.00991148100683
0.0119765070655
-0.0105467866866
0.0107182857522
-0.0110877436288
0.00961002899399
-0.0115998936219
0.008669797125
-0.0121114466509
0.00786884219485
-0.0126327583722
0.00717645335546
-0.0131653701017
0.00656925796867
-0.0137061171481
0.00602908724967
-0.0142496054273
0.00554160114885
-0.0147897251325
0.00509576953074
-0.0153204732778
0.00468331289587
-0.0158363607336
0.00429806906651
-0.0163325912146
0.0039354361183
-0.0168051117503
0.0035919435278
-0.017250589707
0.00326493804235
-0.0176663525785
0.00295235811395
-0.0180503129902
0.0026525753176
-0.0184008932904
0.00236428505304
-0.0187169558842
0.00208643290204
-0.01899774363
0.00181816506061
-0.0192428297165
0.00155879413993
-0.019452079112
0.00130777532415
-0.0196256161916
0.0010646850805
-0.0197638080009
0.000829209332484
-0.0198672369209
0.000601116490394
-0.0199367298971
0.000380267319235
-0.0199732819152
0.000166534216219
-0.019978295803
-4.01292096604e-05
-0.0199524300665
-0.000240361008602
-0.0198903776227
-0.000436415266554
-0.0197920985922
-0.000626478256406
-0.0196590049748
-0.000811161608274
-0.0194931988134
-0.000990723651834
-0.0192974726627
-0.00116521748735
-0.0190746647126
-0.00133458636921
-0.0188275532226
-0.00149881047591
-0.0185589158729
-0.00165812461744
-0.0182714305304
-0.00181301509174
-0.0179674998621
-0.00196410865371
-0.0176491240636
-0.00211211340322
-0.0173178320592
-0.00225780492391
-0.0169746488707
-0.00240200333881
-0.0166200998102
-0.00254553378234
-0.0162542555397
-0.00268918328698
-0.0158768158792
-0.00283366193261
-0.0154872212519
-0.00297956747768
-0.0150847792862
-0.00312735421372
-0.0146687910676
-0.00327730750662
-0.0142386620283
-0.00342952669887
-0.0137939834948
-0.00358391676497
-0.0133345755963
-0.00374018967521
-0.0128604901242
-0.00389787420984
-0.0123719829029
-0.00405633341222
-0.0118694703624
-0.00421479838363
-0.011353505836
-0.00437240577781
-0.0108247829124
-0.00452828871699
-0.0102841975145
-0.00468168679477
-0.00973292953934
-0.00483215868654
-0.00917255096986
-0.00497979589021
-0.00860501642438
-0.00512560871188
-0.00803262969
-0.0052716665028
-0.00745768189864
-0.00542157532611
-0.00688208528976
-0.00558019958141
-0.00630675512932
-0.00575365019588
-0.00573114558707
-0.00594803289599
-0.00515280881125
-0.00616923281377
-0.00456772020355
-0.00641751322137
-0.00397083233372
-0.00669319958055
-0.00335931587209
-0.00696876728071
-0.00273045219194
-0.00726270807177
-0.00210243179365
-0.00741611789188
-0.00146369331229
-0.00782034101138
-0.00098585035702
-0.00723936224558
-0.000144582059178
-0.0123446508996
-0.0101016375525
0.000406733978789
0.0233286260946
-0.00321739486096
0.0127083346999
-0.00645892472744
0.0199492516719
-0.00773751259359
0.0162863002938
-0.00858188157178
0.0141701577715
-0.0091888925543
0.0125835281085
-0.00968084461602
0.0112102490817
-0.0101498898783
0.0100790857731
-0.01063345538
0.00915337355009
-0.0111422782825
0.0083776753118
-0.0116769179548
0.00771110221798
-0.0122328971546
0.00712524531978
-0.0128031156975
0.00659931258861
-0.013379544544
0.00611803526648
-0.0139542512559
0.00567047963281
-0.0145199182422
0.00524898115096
-0.0150700728082
0.00484822248483
-0.0155991606097
0.00446452013487
-0.0161025289609
0.00409530526287
-0.0165763594271
0.00373875888495
-0.0170175770649
0.00339356301763
-0.0174237544411
0.00305873671605
-0.0177930206265
0.00273353198255
-0.0181239804668
0.00241737011578
-0.0184156456954
0.00210980430105
-0.0186673779745
0.00181049700656
-0.0188788431593
0.00151920768302
-0.0190499742127
0.00123577984545
-0.0191809454403
0.000960140811116
-0.0192721460499
0.000692273923342
-0.0193241777438
0.000432252540625
-0.0193378119192
0.000180118691894
-0.0193141693513
-6.38246148298e-05
-0.0192553332071
-0.000299252852893
-0.0191657330754
-0.000526072919507
-0.0190466190373
-0.000745651034082
-0.0188995349024
-0.000958305445752
-0.0187257699837
-0.00116454874531
-0.0185263323115
-0.00136471554824
-0.0183020337951
-0.00155894497816
-0.0180535888159
-0.00174731499317
-0.0177817818866
-0.00192999002745
-0.0174875745774
-0.00210727957322
-0.0171721200894
-0.00227961854022
-0.0168367370349
-0.0024475498457
-0.0164828636038
-0.00261172932723
-0.0161119883701
-0.0027729269081
-0.0157255606518
-0.00293200686805
-0.0153248963715
-0.00308988976407
-0.0149110960292
-0.00324750105843
-0.0144849889689
-0.00340570973819
-0.0140471137996
-0.00356526086285
-0.0135977400252
-0.00372670892326
-0.0131369280572
-0.00389036245077
-0.0126646185471
-0.00405624616511
-0.0121807333896
-0.00422409092341
-0.0116852686429
-0.00439335133324
-0.0111783663511
-0.00456324455737
-0.0106603399159
-0.00473283032382
-0.0101316923965
-0.00490105568607
-0.00959309360306
-0.00506688686266
-0.00904540554295
-0.00522937160284
-0.00848968278958
-0.00538787520574
-0.00792730752306
-0.00554216275015
-0.00735994617921
-0.00569295862826
-0.00678977083313
-0.00584182844978
-0.00621911703298
-0.00599221357843
-0.0056505386474
-0.00614876123393
-0.00508628500703
-0.00631788677626
-0.00452823135679
-0.00650606889995
-0.00397741032945
-0.00672003683854
-0.00343439244938
-0.00696051542393
-0.00290034117183
-0.00722723818166
-0.00237955092239
-0.00748955082599
-0.00187500942789
-0.0077672478472
-0.00140688520167
-0.00788424659672
-0.000965396650486
-0.00826183141916
-0.000704587365047
-0.00750019400928
-3.58631035438e-05
-0.0130133999924
-0.0101375151654
0.000203658835728
0.0231249609973
-0.00389143078943
0.0168034087374
-0.0064834516753
0.0225412596115
-0.00724638878632
0.0170492332922
-0.00787032821012
0.0147940995964
-0.00835436470775
0.0130675714456
-0.0087972182987
0.011653112055
-0.00926018313841
0.0105420607528
-0.00975860460831
0.00965180517614
-0.0102932136232
0.00891229382729
-0.0108596296515
0.00827752705846
-0.0114503944923
0.00771601799738
-0.0120565239353
0.00720544889056
-0.0126687804566
0.00673029735086
-0.0132784268619
0.00628013018898
-0.0138775958989
0.00584815259332
-0.0144594387429
0.00543006584577
-0.0150181470146
0.00502322676363
-0.0155488999717
0.00462605430582
-0.0160477725199
0.00423762505584
-0.0165116279765
0.0038574095655
-0.0169380115893
0.00348510876372
-0.01732505289
0.0031205590379
-0.017671381073
0.0027636812993
-0.0179760538828
0.00241445737688
-0.0182384996198
0.00207292022552
-0.0184584710947
0.00173915390434
-0.0186360081501
0.0014132888571
-0.0187714147714
0.00109551669525
-0.018865228442
0.000786054159029
-0.0189182520728
0.000485240270692
-0.0189314695623
0.00019329793542
-0.018906324532
-8.90101538806e-05
-0.0188429213757
-0.000362698428795
-0.0187412761571
-0.000627761226847
-0.0186029615116
-0.000884009224595
-0.0184297000848
-0.0011316104548
-0.0182236185838
-0.00137067366712
-0.0179870443885
-0.00160133259354
-0.0177223158357
-0.00182371561005
-0.017431680388
-0.0020379913659
-0.0171172661465
-0.00224444383827
-0.0167810734643
-0.00244351012793
-0.0164249568783
-0.00263577110287
-0.0160506100596
-0.00282193045983
-0.0156595659048
-0.00300280490022
-0.0152532043587
-0.00317931727462
-0.0148327573592
-0.00335247989774
-0.014399306319
-0.00352336390022
-0.0139537728058
-0.00369305456015
-0.0134969061061
-0.00386259326705
-0.0130292738445
-0.00403290666457
-0.0125512655237
-0.00420472754106
-0.0120631135115
-0.00437852146265
-0.0115649405386
-0.00455442296957
-0.0110568267914
-0.00473220539702
-0.0105388872119
-0.00491128873152
-0.0100113611442
-0.00509076565425
-0.00947464406791
-0.00526953995276
-0.00892935842632
-0.00544633126953
-0.00837630769237
-0.00561992549035
-0.00781653548039
-0.00578912916787
-0.00725121219527
-0.00595318171007
-0.00668184288574
-0.00611151299237
-0.00611000185481
-0.00626477835464
-0.0055379030786
-0.00641390379449
-0.00496775713329
-0.00656233441699
-0.00440242846773
-0.006714065127
-0.00384469403904
-0.00687559697267
-0.0032983587586
-0.00705238211557
-0.00276720417652
-0.00725117124145
-0.0022562847894
-0.00747141754792
-0.00177453460149
-0.00770897693872
-0.00133443736162
-0.00792964113552
-0.000949557601182
-0.00815213179252
-0.000629086826116
-0.00820472015414
-0.000427163535631
-0.00846376716033
-0.000346716714698
-0.00758065268183
0.000217501525124
-0.0135776428866
-0.00992004156987
-6.55213262341e-06
0.0231314466871
-0.00433091071759
0.0211277290611
-0.00618107119894
0.0243914005171
-0.0065831397961
0.0174512921096
-0.00710998724332
0.0153209456347
-0.00754537448042
0.0135029628435
-0.00798644029118
0.0120941850059
-0.00846824648772
0.0110238753666
-0.00899354837216
0.0101771153693
-0.00955899438827
0.00947774767875
-0.0101578680617
0.00887640769505
-0.0107810429583
0.00833919908025
-0.0114184379375
0.00784284903802
-0.0120601186246
0.00737198220528
-0.0126969149004
0.00691692932173
-0.013320710287
0.00647194945626
-0.0139245360953
0.00603389144757
-0.0145025494853
0.00560123819657
-0.0150499476821
0.00517344855525
-0.0155628524135
0.00475052381845
-0.0160381880122
0.00433273699891
-0.0164735656152
0.0039204760147
-0.0168671804997
0.00351416126274
-0.0172177243206
0.0031142102073
-0.0175243122979
0.00272102810723
-0.0177864240573
0.00233501249849
-0.0180038556199
0.00195656367283
-0.018176682243
0.00158609150386
-0.018305227995
0.00122403624441
-0.0183900421812
0.000870840152104
-0.0184318791863
0.000527047136084
-0.0184316518397
0.000193038778982
-0.0183904585765
-0.000130236830228
-0.0183099079528
-0.000443283365234
-0.0181914208625
-0.000746282681474
-0.0180362162843
-0.00103924785887
-0.017845765572
-0.0013220947579
-0.0176216541855
-0.0015948178326
-0.0173655946038
-0.00185742398663
-0.0170794068689
-0.00210993387819
-0.0167650057768