/*--------------------------------*- C++ -*----------------------------------*\
| =========                 |                                                 |
| \\      /  F ield         | OpenFOAM: The Open Source CFD Toolbox           |
|  \\    /   O peration     | Version:  v1806                                 |
|   \\  /    A nd           | Web:      www.OpenFOAM.com                      |
|    \\/     M anipulation  |                                                 |
\*---------------------------------------------------------------------------*/
FoamFile
{
    version     2.0;
    format      ascii;
    class       volVectorField;
    location    "700";
    object      U;
}
// * * * * * * * * * * * * * * * * * * * * * * * * * * * * * * * * * * * * * //

dimensions      [0 1 -1 0 0 0 0];


internalField   nonuniform List<vector> 
6400
(
(0.00600002544307 0.00781896064326 0)
(0.0137397227236 0.00504961750215 0)
(0.0182112017567 0.00420272335608 0)
(0.0173993565652 0.00421782079854 0)
(0.013318867379 -0.00136020444651 0)
(-0.0141017270093 -0.0139368765839 0)
(-0.0379378210786 -0.014483687182 0)
(-0.0618884111081 -0.0143892197009 0)
(-0.0862004203416 -0.0140603522268 0)
(-0.110204864561 -0.0135600995653 0)
(-0.133528047254 -0.0129369391333 0)
(-0.155908066402 -0.0122352281602 0)
(-0.177169366667 -0.0114907062168 0)
(-0.197204040992 -0.0107310010302 0)
(-0.215957043907 -0.00997667610777 0)
(-0.233413597 -0.00924237285294 0)
(-0.249588520117 -0.00853790962389 0)
(-0.264517389476 -0.00786928980411 0)
(-0.278249416503 -0.00723959376742 0)
(-0.29084189006 -0.00664974014169 0)
(-0.302355982084 -0.00609911406974 0)
(-0.312853697368 -0.00558606813511 0)
(-0.322395749417 -0.00510830904253 0)
(-0.331040161647 -0.00466318596816 0)
(-0.338841419197 -0.00424789802244 0)
(-0.345850024295 -0.00385963696302 0)
(-0.352112340504 -0.00349567942013 0)
(-0.357670631386 -0.00315344030168 0)
(-0.362563221787 -0.00283049568943 0)
(-0.366824723586 -0.00252458064845 0)
(-0.370486291488 -0.00223356608211 0)
(-0.373575904178 -0.00195542216637 0)
(-0.376118619878 -0.00168814809139 0)
(-0.37813667283 -0.00142956843008 0)
(-0.379649123384 -0.00117692275098 0)
(-0.380671111899 -0.000926634194726 0)
(-0.381213771807 -0.000675117025983 0)
(-0.381288103179 -0.000420823927201 0)
(-0.380900892894 -0.000165161520956 0)
(-0.380053075901 8.74314842418e-05 0)
(-0.378758416925 0.000334095456678 0)
(-0.377028458784 0.000574721877021 0)
(-0.374874040771 0.000809970475831 0)
(-0.37230451767 0.00104075647512 0)
(-0.369327594811 0.00126806598115 0)
(-0.365949292009 0.00149288917425 0)
(-0.362173967788 0.00171619116455 0)
(-0.35800438088 0.00193889071279 0)
(-0.353441789327 0.00216183902013 0)
(-0.3484860946 0.00238579376561 0)
(-0.343136039672 0.00261139056187 0)
(-0.337389467648 0.00283911152377 0)
(-0.331243643454 0.00306925599563 0)
(-0.324695634709 0.00330191507953 0)
(-0.317742740535 0.0035369566507 0)
(-0.310382948309 0.00377402351625 0)
(-0.302615389613 0.00401255199058 0)
(-0.294440757739 0.00425181337523 0)
(-0.285861641427 0.0044909848694 0)
(-0.276882723305 0.00472925095088 0)
(-0.267510787555 0.00496593972914 0)
(-0.257754479789 0.00520069310141 0)
(-0.247623763446 0.00543367272272 0)
(-0.237129020286 0.00566579831349 0)
(-0.226279746847 0.00589901837156 0)
(-0.215082805127 0.00613660765754 0)
(-0.20354020036 0.00638348756678 0)
(-0.191646378705 0.00664655168259 0)
(-0.179385045716 0.00693497741928 0)
(-0.166725516596 0.00726046642464 0)
(-0.153618708884 0.00763729108448 0)
(-0.139993341497 0.0080820009905 0)
(-0.125753973378 0.00861226920135 0)
(-0.110782427732 0.00924325388224 0)
(-0.0949382952386 0.00997930360391 0)
(-0.078053286716 0.0108024252074 0)
(-0.0599828688347 0.0116606799081 0)
(-0.0409759309972 0.0123966648347 0)
(-0.0225993008161 0.0122778469777 0)
(-0.00811986393807 0.00812827965664 0)
(0.00356820933974 0.0173705741769 0)
(0.00910676225608 0.0113459240119 0)
(0.00272488525803 -0.000453602619154 0)
(-0.023579264893 -0.0185159962598 0)
(-0.0431148027842 -0.0272695479765 0)
(-0.0653619231783 -0.0329842431125 0)
(-0.0887106793215 -0.0352867072426 0)
(-0.112817060685 -0.0360798020921 0)
(-0.137147808259 -0.0359659035572 0)
(-0.161044792126 -0.0352064757213 0)
(-0.184121913471 -0.0339801968971 0)
(-0.206116040234 -0.0324275075437 0)
(-0.226859959815 -0.0306612575448 0)
(-0.246258415822 -0.0287713702401 0)
(-0.264270625864 -0.0268278016172 0)
(-0.280896080808 -0.0248832194513 0)
(-0.296162950078 -0.0229756657229 0)
(-0.310118750573 -0.0211311686743 0)
(-0.322823027017 -0.019366197625 0)
(-0.334341785102 -0.0176898654286 0)
(-0.344743403231 -0.0161058207207 0)
(-0.354095749615 -0.0146138113979 0)
(-0.362464248957 -0.0132109315318 0)
(-0.369910673626 -0.0118925839289 0)
(-0.376492471462 -0.0106531998518 0)
(-0.382262476392 -0.00948675990928 0)
(-0.38726888388 -0.00838715748075 0)
(-0.391555402113 -0.00734843838466 0)
(-0.395161508805 -0.00636494524295 0)
(-0.398122758329 -0.00543138759707 0)
(-0.400471099438 -0.00454286236241 0)
(-0.402235234503 -0.00369483747665 0)
(-0.403441061922 -0.00288304098653 0)
(-0.40411210468 -0.00210303835644 0)
(-0.404269229409 -0.00134950938371 0)
(-0.403928788803 -0.000616912487444 0)
(-0.40310038514 9.6366915735e-05 0)
(-0.401818749027 0.000788337006858 0)
(-0.400109792024 0.00146008928266 0)
(-0.398001051495 0.00211325720052 0)
(-0.395503775208 0.00274833332221 0)
(-0.392627438548 0.00336709817624 0)
(-0.389379112089 0.00397173907412 0)
(-0.385764374731 0.00456459106521 0)
(-0.381787510799 0.00514802210509 0)
(-0.377451561263 0.00572437793289 0)
(-0.372758335926 0.00629594111094 0)
(-0.367708433272 0.00686488528908 0)
(-0.362301290758 0.00743321673172 0)
(-0.356535280482 0.0080027015503 0)
(-0.350407861831 0.00857478051386 0)
(-0.343915798936 0.00915047673053 0)
(-0.337055446609 0.00973030378747 0)
(-0.329823101968 0.0103141845659 0)
(-0.322215412088 0.0109013923966 0)
(-0.314229819029 0.0114905276017 0)
(-0.305865015368 0.0120795423548 0)
(-0.297121374072 0.012665826269 0)
(-0.288001309481 0.0132463632127 0)
(-0.278509519581 0.0138179672313 0)
(-0.2686530571 0.0143776018295 0)
(-0.258441175711 0.0149227835712 0)
(-0.247884901139 0.0154520668969 0)
(-0.23699628141 0.0159656046627 0)
(-0.22578727867 0.016465775364 0)
(-0.214268271824 0.0169578665596 0)
(-0.202446153898 0.017450797921 0)
(-0.190322035783 0.0179578397194 0)
(-0.177888568939 0.0184972836564 0)
(-0.165126877719 0.0190929750416 0)
(-0.152003257126 0.0197743713604 0)
(-0.138466075945 0.0205758266011 0)
(-0.124443646209 0.0215341934491 0)
(-0.109843940092 0.022681458669 0)
(-0.0945557089435 0.0240277203904 0)
(-0.0784517962458 0.0255346673437 0)
(-0.0614179288707 0.0270796522198 0)
(-0.0435016631158 0.0283208187018 0)
(-0.0254594777845 0.0280560379209 0)
(-0.0102907779815 0.0224426894433 0)
(-0.00116140521135 0.0173191554366 0)
(-0.0153291597473 -0.00562562633756 0)
(-0.0336768327948 -0.0252380915679 -8.51481598455e-29)
(-0.0543318525388 -0.0386912480016 5.38257551564e-29)
(-0.0755165662997 -0.0486265760194 4.06172691494e-29)
(-0.097290467972 -0.0555714109202 -3.31072640088e-29)
(-0.119417398742 -0.0590225080198 2.81347009634e-29)
(-0.141763571255 -0.0601715661545 -2.49462654155e-29)
(-0.163874004082 -0.0597747113768 0)
(-0.185309532645 -0.0582784893448 0)
(-0.20577548788 -0.0560082175895 0)
(-0.225078230285 -0.0532142500425 0)
(-0.243108641724 -0.0500928578777 0)
(-0.259820530492 -0.0467967156867 0)
(-0.27521334725 -0.0434418656881 0)
(-0.289318096698 -0.0401135587156 0)
(-0.302186227241 -0.0368716402737 0)
(-0.313881138458 -0.0337555544864 0)
(-0.324471928158 -0.0307888631655 0)
(-0.334028981239 -0.0279831749834 0)
(-0.342621012627 -0.0253414319021 0)
(-0.350313212552 -0.0228605598049 0)
(-0.357166195077 -0.0205335348628 0)
(-0.363235512135 -0.0183509434012 0)
(-0.368571544018 -0.016302122603 0)
(-0.373219636555 -0.0143759673933 0)
(-0.377220385249 -0.0125614792993 0)
(-0.380610001993 -0.0108481186477 0)
(-0.383420714016 -0.00922600986859 0)
(-0.385681147825 -0.00768604765385 -7.08182008722e-29)
(-0.387416715203 -0.00621994333693 7.07645557328e-29)
(-0.388649996281 -0.00482020700583 0)
(-0.389401436702 -0.0034799624673 0)
(-0.389690060395 -0.00219246384593 0)
(-0.389532003472 -0.000950858627705 0)
(-0.388934750715 0.000249593387991 0)
(-0.387928564461 0.00140530372066 0)
(-0.386528835423 0.0025152927749 0)
(-0.384739675378 0.00358689956232 0)
(-0.382570502362 0.00462664979714 0)
(-0.380029274803 0.00563991296069 0)
(-0.377123428819 0.0066306372909 0)
(-0.373859291294 0.00760242022226 0)
(-0.370242057953 0.00855876566558 0)
(-0.366275773102 0.0095031582585 0)
(-0.361963305121 0.0104390651841 0)
(-0.357306323441 0.0113698982798 0)
(-0.352305293147 0.0122989454085 0)
(-0.346959503348 0.0132292711991 0)
(-0.341267144712 0.014163590943 0)
(-0.33522544976 0.0151041211839 0)
(-0.328830906758 0.016052417565 0)
(-0.322079553342 0.0170092113747 0)
(-0.31496734977 0.017974263297 0)
(-0.307490623521 0.0189462526281 0)
(-0.299646567818 0.0199227254023 0)
(-0.29143376669 0.0209001218207 0)
(-0.282852709824 0.0218739050149 0)
(-0.273906251603 0.0228388069983 0)
(-0.264599962405 0.0237892054029 0)
(-0.254942317056 0.0247196342356 0)
(-0.244944665617 0.025625429046 0)
(-0.234620936314 0.0265034943031 0)
(-0.223987027907 0.0273531801218 0)
(-0.213059859625 0.0281772439274 0)
(-0.201856058585 0.0289828688445 0)
(-0.190390264947 0.0297827166843 0)
(-0.178673087315 0.0305959178912 0)
(-0.166708763221 0.0314489018024 0)
(-0.154492394858 0.0323761060294 0)
(-0.142006956682 0.0334198430191 0)
(-0.129220568996 0.0346288549462 0)
(-0.11608375877 0.0360549529601 0)
(-0.102526513956 0.0377437852943 0)
(-0.0884571846332 0.039713548078 0)
(-0.0737669307787 0.0419158169376 0)
(-0.0583351800344 0.0441614019287 0)
(-0.0420422655675 0.0459235424494 0)
(-0.0251163303331 0.0457034461564 0)
(-0.00991041927491 0.0392726099281 0)
(-0.0108703641832 0.00402421390769 0)
(-0.0320290261473 -0.0258143659821 0)
(-0.0520798785164 -0.0448323699392 0)
(-0.0733917103066 -0.0594926286564 0)
(-0.0945734585661 -0.0700325796984 0)
(-0.115593301583 -0.0770329052734 0)
(-0.136309791411 -0.0805227695078 0)
(-0.156609052732 -0.0813734189172 0)
(-0.176242343047 -0.0803043115146 0)
(-0.194989078658 -0.0778533999698 0)
(-0.212695262952 -0.0744442021033 0)
(-0.22926919381 -0.0704091479115 0)
(-0.244674341174 -0.0660075577197 0)
(-0.25891508649 -0.0614377094143 0)
(-0.272023678229 -0.0568466384259 0)
(-0.284049354124 -0.0523389753007 0)
(-0.295050111406 -0.0479851374386 0)
(-0.305086919 -0.0438287800638 0)
(-0.314219943569 -0.0398933280799 0)
(-0.322506302037 -0.0361874727861 0)
(-0.329998891673 -0.032709617887 0)
(-0.336745930865 -0.0294513453792 0)
(-0.342790936375 -0.0264000265581 0)
(-0.348172948119 -0.0235407250511 0)
(-0.352926875223 -0.0208575386251 0)
(-0.357083891789 -0.0183345122436 0)
(-0.360671840798 -0.0159562296549 0)
(-0.363715623931 -0.0137081678678 0)
(-0.366237555644 -0.0115768825405 0)
(-0.368257660308 -0.00955009244307 0)
(-0.369793952156 -0.00761670370535 0)
(-0.370862843397 -0.00576670798044 0)
(-0.371479925885 -0.00399078154628 0)
(-0.371660338626 -0.0022798488941 0)
(-0.371415514005 -0.000626162156233 0)
(-0.37074546062 0.000973467939183 0)
(-0.369695800866 0.00251759177103 0)
(-0.368256617109 0.00401064735082 0)
(-0.366441096606 0.00545901914888 0)
(-0.364257744495 0.0068676620848 0)
(-0.361714632286 0.00824165283528 0)
(-0.358818995293 0.00958580433848 0)
(-0.355577098538 0.0109048087837 0)
(-0.351994179583 0.0122033307883 0)
(-0.348074389554 0.0134860533436 0)
(-0.343820729358 0.0147576753143 8.49074814584e-29)
(-0.339234989982 0.0160228628724 -8.56945249789e-29)
(-0.334317711706 0.0172861546177 0)
(-0.329068179264 0.0185518206634 0)
(-0.323484470769 0.0198236781275 0)
(-0.317563577767 0.0211048701751 0)
(-0.311301611407 0.0223976209282 0)
(-0.304694105194 0.0237029850606 0)
(-0.297736417724 0.0250206163412 0)
(-0.290424229825 0.0263485843197 0)
(-0.282754119665 0.0276832710505 0)
(-0.274724187801 0.0290193808339 0)
(-0.266334693131 0.0303500924927 1.24793999149e-28)
(-0.257588650529 0.0316673805081 -1.27964134319e-28)
(-0.248492332023 0.0329625233613 0)
(-0.239055612005 0.0342268031553 0)
(-0.229292095774 0.0354523967807 0)
(-0.219218979591 0.0366334366893 0)
(-0.208856600013 0.0377672198285 0)
(-0.198227640034 0.0388555348728 0)
(-0.187355996505 0.0399060363315 0)
(-0.176265262884 0.0409336912432 0)
(-0.164976841454 0.0419621566663 0)
(-0.153507969981 0.0430247462506 0)
(-0.14186914554 0.0441657210779 0)
(-0.130061079576 0.0454403531581 0)
(-0.118072329672 0.0469129448263 0)
(-0.105876475273 0.0486540121234 0)
(-0.0934269450162 0.0507319374195 0)
(-0.0806522063717 0.053191154112 0)
(-0.0674558501677 0.0560086532449 0)
(-0.0537005300141 0.0590003991738 0)
(-0.0391419498449 0.0615951185698 0)
(-0.0237188694907 0.0621321029812 0)
(-0.0090725707932 0.055694559542 0)
(-0.0205562300648 -0.0225679773233 0)
(-0.039084332097 -0.0473725891164 0)
(-0.0613818406065 -0.0662152564634 0)
(-0.0832858485217 -0.0807453768429 0)
(-0.10430301539 -0.0909319226848 0)
(-0.124457069846 -0.0972575864247 0)
(-0.14373643806 -0.100110950397 0)
(-0.162139111566 -0.100229510629 0)
(-0.179590395318 -0.0982830448451 0)
(-0.196030788214 -0.0948381482126 0)
(-0.211428670549 -0.0903649842609 0)
(-0.2257816886 -0.0852409791983 0)
(-0.239112420933 -0.0797605838559 0)
(-0.251460012053 -0.0741458087729 0)
(-0.262872476279 -0.0685574107962 0)
(-0.273400690699 -0.0631060983927 0)
(-0.283094454972 -0.0578631423577 0)
(-0.292000325355 -0.0528698711984 0)
(-0.300160730821 -0.0481457323087 0)
(-0.307613882964 -0.0436948200445 0)
(-0.314394095556 -0.0395109468064 0)
(-0.320532256438 -0.035581440534 0)
(-0.326056308851 -0.031889896369 0)
(-0.33099166844 -0.028418109637 0)
(-0.335361565146 -0.0251473916452 0)
(-0.339187312829 -0.0220594338255 0)
(-0.342488530177 -0.0191368472135 0)
(-0.34528332557 -0.0163634691955 0)
(-0.347588427267 -0.0137245113784 0)
(-0.34941931298 -0.0112066179997 0)
(-0.350790302968 -0.00879787175659 -7.62397184974e-29)
(-0.351715109988 -0.00648763238449 7.65295264876e-29)
(-0.352207617151 -0.00426597006044 0)
(-0.352280861121 -0.00212337082953 0)
(-0.351941348962 -5.33054908452e-05 0)
(-0.351197320647 0.00194320025788 0)
(-0.350084281512 0.00386976993457 0)
(-0.348595502066 0.00573685112076 0)
(-0.346743506944 0.00755032067476 0)
(-0.344536259841 0.00931615308284 0)
(-0.341981561366 0.0110401149559 0)
(-0.339086567989 0.0127278087411 0)
(-0.33585766474 0.0143847982675 0)
(-0.332300345692 0.0160167055829 0)
(-0.328419098446 0.0176292610783 0)
(-0.32421728723 0.0192283000223 0)
(-0.319697041498 0.0208197010005 0)
(-0.314859163971 0.0224092625248 0)
(-0.309703076601 0.0240025153209 0)
(-0.304226825858 0.0256044721647 0)
(-0.298427169832 0.02721932278 0)
(-0.292299768178 0.0288500896164 0)
(-0.285839491409 0.0304982686104 0)
(-0.279040857997 0.0321634882181 0)
(-0.271898597064 0.033843225891 0)
(-0.264408321812 0.0355326259948 0)
(-0.256567283234 0.0372244654621 0)
(-0.248375161651 0.0389093070719 0)
(-0.239834841276 0.040575875378 0)
(-0.230953097018 0.0422116873088 0)
(-0.221741128078 0.0438039283468 0)
(-0.212214864646 0.0453405881063 0)
(-0.202394990056 0.0468118070422 0)
(-0.192306643039 0.0482113969022 0)
(-0.181978735811 0.0495385379311 0)
(-0.17144296631 0.0507994431665 0)
(-0.160732458894 0.052009140358 0)
(-0.149879753962 0.0531934082899 0)
(-0.138915369254 0.0543893530941 0)
(-0.127865337285 0.0556477494662 0)
(-0.116747547776 0.0570336903996 0)
(-0.105569541214 0.0586230856389 0)
(-0.0943268539873 0.0605016853094 0)
(-0.0829969831939 0.0627605332402 0)
(-0.0715296610102 0.0654746072394 0)
(-0.05984603855 0.0686622787382 0)
(-0.0478114041371 0.0721919324425 0)
(-0.0351035647334 0.0755614212897 0)
(-0.021564771159 0.0770743767807 0)
(-0.00800726220836 0.070962485878 0)
(-0.0200930286179 -0.0475505344823 0)
(-0.0406614773501 -0.0714132596681 0)
(-0.0648102000584 -0.0888816841748 0)
(-0.0869427319804 -0.102200808739 0)
(-0.107598382201 -0.111222822115 0)
(-0.126861858845 -0.116379763421 0)
(-0.144840817137 -0.118156164489 0)
(-0.161641930789 -0.117228950401 0)
(-0.177322318767 -0.114241562873 0)
(-0.191937040658 -0.109764908772 0)
(-0.205542993078 -0.10428274544 0)
(-0.21820010347 -0.0981865138883 0)
(-0.229968709089 -0.0917800710463 0)
(-0.240905896887 -0.0852892700386 0)
(-0.251062959825 -0.0788742238914 0)
(-0.260484279403 -0.0726422314384 0)
(-0.2692074832 -0.066659963919 0)
(-0.277264387904 -0.0609640675829 0)
(-0.284682247714 -0.0555698319827 0)
(-0.291484961726 -0.0504779342974 0)
(-0.297694054988 -0.0456794823045 0)
(-0.303329376684 -0.0411596668491 0)
(-0.308409541325 -0.0369003393561 0)
(-0.312952169427 -0.032881791237 0)
(-0.316973997814 -0.0290839569025 0)
(-0.32049091772 -0.0254872066966 0)
(-0.323517989588 -0.0220728515959 0)
(-0.326069457349 -0.0188234458456 0)
(-0.328158738469 -0.0157229523499 0)
(-0.329798395036 -0.0127568231721 0)
(-0.331000245822 -0.00991201870469 0)
(-0.331776122246 -0.00717687508359 0)
(-0.332138634064 -0.0045406918869 0)
(-0.332098084452 -0.00199375653538 0)
(-0.331653856616 0.000470110602895 0)
(-0.330840984537 0.00284926568791 0)
(-0.329653671064 0.00514848094516 0)
(-0.328103870196 0.0073789947233 0)
(-0.326201124063 0.00954712112131 0)
(-0.323953960878 0.0116593445605 0)
(-0.321370379874 0.0137219917014 0)
(-0.318457845736 0.0157413482056 0)
(-0.315223198966 0.0177237816131 0)
(-0.311672520177 0.0196758440308 0)
(-0.307810970066 0.0216043298567 0)
(-0.303642615642 0.0235162743374 0)
(-0.29917025491 0.0254188819972 0)
(-0.294395256939 0.0273193754726 0)
(-0.28931743957 0.0292247583753 0)
(-0.283935011827 0.0311414909708 0)
(-0.278244610915 0.0330750861282 0)
(-0.272241463429 0.0350296436977 0)
(-0.2659196961 0.0370073537959 0)
(-0.259272811493 0.0390080125484 0)
(-0.252294330647 0.0410286031542 0)
(-0.244978590659 0.0430629984218 0)
(-0.237321662557 0.0451018522723 0)
(-0.229322339035 0.0471327323128 0)
(-0.220983137303 0.0491405297583 0)
(-0.212311214057 0.0511082245385 0)
(-0.203319129316 0.0530179373308 0)
(-0.194025360562 0.0548523419855 0)
(-0.184454481622 0.0565963404041 0)
(-0.174637039561 0.0582388835141 0)
(-0.164608909031 0.0597751585503 0)
(-0.154410366819 0.0612085254854 0)
(-0.144085076453 0.0625524363144 0)
(-0.133677150841 0.0638337522272 0)
(-0.123230853912 0.0650915003235 0)
(-0.112787892285 0.0663811577734 0)
(-0.10238314196 0.0677774130105 0)
(-0.0920408156019 0.069366016504 0)
(-0.0817746159295 0.0712445674473 0)
(-0.0715852935111 0.073526476146 0)
(-0.0614403537506 0.0763174663995 0)
(-0.0512815826441 0.0796825723256 0)
(-0.0409994162519 0.0835627831795 0)
(-0.0302178528716 0.0875847687246 0)
(-0.0188541747173 0.0901459018106 0)
(-0.00679954349046 0.0846015227903 0)
(-0.0187129651692 -0.0750519076427 0)
(-0.0400001955329 -0.0966414105267 0)
(-0.0647779480131 -0.111999584717 0)
(-0.0866033071152 -0.123481135684 0)
(-0.106673679418 -0.130829011362 0)
(-0.125024820497 -0.134460774329 0)
(-0.141851329544 -0.134878100038 0)
(-0.157329823585 -0.132720638888 0)
(-0.171603552154 -0.128609334272 0)
(-0.184801544003 -0.123103586426 0)
(-0.19703662507 -0.11667843349 1.15199790652e-28)
(-0.208405616549 -0.109716481116 -1.13603144614e-28)
(-0.21898866668 -0.102511398427 0)
(-0.228849583105 -0.0952780448506 0)
(-0.238037550971 -0.088165883085 0)
(-0.24658978748 -0.0812729282188 0)
(-0.254534542507 -0.0746584932688 0)
(-0.261893897019 -0.0683538674266 0)
(-0.268686031342 -0.0623707226289 0)
(-0.274926853272 -0.0567074397008 0)
(-0.280631032145 -0.0513537199653 0)
(-0.285812564615 -0.0462938767077 0)
(-0.290485018924 -0.0415091532832 0)
(-0.294661585166 -0.0369793417369 0)
(-0.298355031904 -0.0326839036548 0)
(-0.301577636764 -0.0286027346993 0)
(-0.30434113444 -0.024716672063 0)
(-0.306656693098 -0.021007817923 0)
(-0.308534883234 -0.0174597357937 0)
(-0.309985633454 -0.0140575491329 0)
(-0.311018398722 -0.0107879330177 0)
(-0.311643059399 -0.00763899048905 8.43923448338e-29)
(-0.311870530198 -0.00460017798464 -8.51338644695e-29)
(-0.311708371086 -0.00166276792701 0)
(-0.311151245084 0.0011790245816 0)
(-0.310240715306 0.00392685160747 0)
(-0.308963960852 0.00658669863213 0)
(-0.307334428758 0.00916813059547 0)
(-0.305360363773 0.0116786350341 0)
(-0.303050218968 0.0141251326947 0)
(-0.300412287704 0.0165143115976 0)
(-0.297454626372 0.0188528921001 0)
(-0.294184899619 0.0211478187259 0)
(-0.29061019011 0.0234063983367 0)
(-0.286736777913 0.0256363796332 0)
(-0.282569896698 0.027845962446 0)
(-0.27811347834 0.0300437219592 0)
(-0.273369904553 0.0322384326838 0)
(-0.268339792258 0.0344387796108 0)
(-0.263021847278 0.0366529503166 0)
(-0.25741282675 0.0388881129384 0)
(-0.251507651726 0.0411498006013 0)
(-0.245299708325 0.0434412384273 0)
(-0.238781363348 0.0457626697436 0)
(-0.231944698989 0.0481107551318 0)
(-0.224782462967 0.0504781076027 0)
(-0.217289193376 0.0528530652135 0)
(-0.209462441601 0.055219783556 0)
(-0.201304075836 0.0575586238925 0)
(-0.192821467442 0.0598470985586 0)
(-0.184028539015 0.0620610712818 0)
(-0.174946540694 0.0641764911309 0)
(-0.165604346294 0.0661715063665 0)
(-0.156038611432 0.0680284704067 0)
(-0.146293091474 0.0697368835168 0)
(-0.13641747391 0.0712957198742 0)
(-0.126467757548 0.0727145335743 0)
(-0.116500039871 0.0740207255043 0)
(-0.106574112194 0.0752531738262 0)
(-0.0967469376541 0.0764691483513 0)
(-0.0870727793705 0.0777544134097 0)
(-0.0775934582865 0.0792056829428 0)
(-0.0683346393212 0.0809282768442 0)
(-0.0593225167177 0.083058996461 0)
(-0.050536076847 0.0857341306574 0)
(-0.0419375621132 0.0890655351367 0)
(-0.0334577245567 0.0930718004602 0)
(-0.0246630694496 0.097525153209 0)
(-0.0156969737721 0.101063534113 0)
(-0.00548481325007 0.0962670978696 0)
(-0.017291133298 -0.102294395528 0)
(-0.0383853375833 -0.12171208031 0)
(-0.0627997750348 -0.134821344428 0)
(-0.0838528857357 -0.144204399138 0)
(-0.103128705034 -0.149632402253 0)
(-0.120534838488 -0.151547358659 0)
(-0.136318022221 -0.15046022087 0)
(-0.150685932788 -0.146988465665 0)
(-0.16382826355 -0.141729722217 0)
(-0.175913477307 -0.135220607662 0)
(-0.187083237261 -0.127912607921 0)
(-0.197451685939 -0.120164897743 0)
(-0.207106566774 -0.112249129863 0)
(-0.216112538405 -0.104361022637 0)
(-0.224515772178 -0.0966347202984 0)
(-0.232348830872 -0.0891569753453 0)
(-0.239635058709 -0.0819795109608 0)
(-0.246392049738 -0.0751289527768 0)
(-0.252634093493 -0.0686143845058 0)
(-0.258373713966 -0.0624329021727 0)
(-0.263622517538 -0.056573624125 0)
(-0.268391577903 -0.0510205699104 0)
(-0.272691550813 -0.0457547310238 0)
(-0.276532657524 -0.040755566738 0)
(-0.279924628628 -0.036002085854 0)
(-0.282876660616 -0.0314736218399 0)
(-0.285397408932 -0.027150375026 0)
(-0.287495009835 -0.023013782392 0)
(-0.289177096598 -0.0190467715192 0)
(-0.290450821518 -0.0152339085687 0)
(-0.291323121435 -0.011561372799 0)
(-0.291801575217 -0.00801678432058 0)
(-0.291894603431 -0.00458942958895 0)
(-0.291606599994 -0.00127150511601 0)
(-0.290929194694 0.00194146592001 0)
(-0.28990984405 0.00505165335486 0)
(-0.288527927773 0.00806636240618 0)
(-0.286798191713 0.0109943542123 0)
(-0.284728229388 0.0138429249467 0)
(-0.282326665505 0.0166188876655 0)
(-0.279602376298 0.0193289568038 0)
(-0.276564346056 0.0219800432483 0)
(-0.273221452123 0.0245794806415 0)
(-0.269582220099 0.0271351970235 0)
(-0.26565453997 0.0296558252718 9.9514269812e-29)
(-0.261445344212 0.0321507358127 -1.00089666005e-28)
(-0.256960256947 0.0346299693103 0)
(-0.252203234132 0.0371040450264 0)
(-0.247176226361 0.0395836229474 0)
(-0.241878908901 0.0420790047558 0)
(-0.236308534521 0.0445994724156 0)
(-0.230459966715 0.0471524880533 0)
(-0.224325950128 0.0497427968342 0)
(-0.217897664329 0.0523715002092 0)
(-0.211165557674 0.0550352200008 0)
(-0.204120475387 0.057725398507 0)
(-0.196755054968 0.0604278776647 0)
(-0.189065190545 0.0631229821641 0)
(-0.181051760175 0.0657857257148 0)
(-0.172722106642 0.0683871030205 0)
(-0.164091423825 0.0708953498535 0)
(-0.155183929685 0.0732780334462 0)
(-0.146033091861 0.0755049346924 0)
(-0.136682334549 0.0775498028519 0)
(-0.127184350877 0.0793944757164 0)
(-0.117598421369 0.081032341351 0)
(-0.107996079439 0.0824654834593 0)
(-0.0984437181199 0.0837221129831 0)
(-0.0890231304857 0.0848400000819 0)
(-0.0798016983953 0.0858730115806 0)
(-0.0708569078568 0.0869189251106 0)
(-0.0622583518585 0.0880921223026 0)
(-0.0540319966609 0.089499873291 0)
(-0.0462378918413 0.0913035720297 0)
(-0.0388594451416 0.0936707196414 0)
(-0.0318794106442 0.0967567315281 0)
(-0.02527396519 0.100656273261 0)
(-0.0185350134874 0.105264883377 0)
(-0.0121426709275 0.109598006235 0)
(-0.00407233991487 0.105679027079 0)
(-0.0158746513806 -0.128086977591 0)
(-0.0362419351077 -0.145800612928 0)
(-0.0597241709303 -0.156792700359 0)
(-0.0797194415327 -0.164061677389 0)
(-0.0980512394449 -0.167518714498 0)
(-0.114484910499 -0.167666569078 0)
(-0.129299487106 -0.165036937075 0)
(-0.142704545564 -0.160238529965 0)
(-0.154907282689 -0.153847198242 0)
(-0.166089938474 -0.1463713155 0)
(-0.17640338838 -0.138231041446 0)
(-0.185965905579 -0.129754855076 0)
(-0.194865660792 -0.121187125077 0)
(-0.203165813508 -0.112701416159 0)
(-0.210910517114 -0.104415342249 0)
(-0.218130589957 -0.0964042750682 0)
(-0.224848133788 -0.0887126812324 0)
(-0.231079871573 -0.0813628744457 0)
(-0.236839313502 -0.0743615088886 0)
(-0.242138017901 -0.0677043177468 0)
(-0.246986241583 -0.061379575264 0)
(-0.25139323074 -0.0553706559958 0)
(-0.255367333768 -0.0496579522062 0)
(-0.258916049556 -0.0442203219836 0)
(-0.262046076054 -0.0390361812532 0)
(-0.264763389166 -0.0340843125108 0)
(-0.267073352617 -0.0293444404329 0)
(-0.268980827868 -0.0247976256135 0)
(-0.270490266721 -0.0204265426173 0)
(-0.271605860117 -0.016215644823 0)
(-0.272332000405 -0.0121510726877 0)
(-0.272673979603 -0.00822024318534 0)
(-0.272637135323 -0.00441209643225 9.55876114429e-29)
(-0.272221554239 -0.000719823571276 -9.70100793274e-29)
(-0.271417023061 0.0028572095277 0)
(-0.270276902895 0.00632223356122 0)
(-0.268773527025 0.00968655199268 0)
(-0.266922231348 0.012956899903 0)
(-0.264730245915 0.0161395938286 0)
(-0.26220657269 0.0192407739375 0)
(-0.259360895789 0.0222667389117 0)
(-0.256203379007 0.0252242218148 0)
(-0.252744411679 0.0281206353439 0)
(-0.248994326163 0.0309642802153 0)
(-0.244963061516 0.0337645002282 0)
(-0.240659764996 0.0365317577549 0)
(-0.236092335982 0.0392775957807 0)
(-0.231266931889 0.0420144480525 0)
(-0.22618747327 0.044755261598 0)
(-0.220855204023 0.0475129033386 0)
(-0.215268385997 0.0502993345386 0)
(-0.209422208271 0.0531245831492 0)
(-0.203308987088 0.0559955668334 0)
(-0.196918757743 0.0589148149331 0)
(-0.190240208441 0.0618793424078 0)
(-0.183261983528 0.0648796427558 0)
(-0.175974496301 0.0678988859781 0)
(-0.168371505567 0.0709132371598 0)
(-0.160452540253 0.0738913781796 0)
(-0.152224614438 0.0767966538191 0)
(-0.143704003564 0.0795881571174 0)
(-0.134918122093 0.0822230511402 0)
(-0.12590513088 0.0846611278197 0)
(-0.116715715675 0.0868651518816 0)
(-0.107412958589 0.0888065658296 0)
(-0.0980637038323 0.0904727301679 0)
(-0.0887625924162 0.0918529346202 0)
(-0.0795754608914 0.0929757091673 0)
(-0.0706267075015 0.0938804441207 0)
(-0.0619808508651 0.0946121814772 0)
(-0.0537368512727 0.0952741068105 0)
(-0.0460195325387 0.0960121448276 0)
(-0.0388342940311 0.0969296678058 0)
(-0.0322896405466 0.0982114824693 0)
(-0.0263685640007 0.100059562968 0)
(-0.0210797647288 0.102671871645 0)
(-0.01643687028 0.106221896632 0)
(-0.0118560586333 0.110685598265 0)
(-0.00818636460911 0.115540778501 0)
(-0.00254750046904 0.112577208225 0)
(-0.0144787497366 -0.152166181109 0)
(-0.033813463823 -0.168552436956 0)
(-0.0560636176728 -0.177606355904 0)
(-0.0748541737776 -0.182861302595 0)
(-0.0921566668379 -0.184410486891 0)
(-0.107606365068 -0.182834612584 0)
(-0.121505820941 -0.178697371516 0)
(-0.1340480434 -0.172608563309 0)
(-0.145439526636 -0.165125064373 0)
(-0.155859635777 -0.156725909827 0)
(-0.165456095654 -0.147797646112 0)
(-0.174343529434 -0.138636247485 0)
(-0.182606869858 -0.129458090463 0)
(-0.190307132638 -0.120414824832 0)
(-0.197487633349 -0.111608241276 0)
(-0.204179426542 -0.103103039316 0)
(-0.210405436796 -0.0949368486813 0)
(-0.216183261126 -0.0871277081512 0)
(-0.221526894248 -0.0796795435774 0)
(-0.226447707184 -0.0725862053135 0)
(-0.230954976684 -0.0658345070827 0)
(-0.235056189089 -0.059406566999 0)
(-0.23875725212 -0.053281637811 0)
(-0.24206269501 -0.0474375396284 0)
(-0.244975885529 -0.0418517670689 0)
(-0.247499276792 -0.0365023218178 0)
(-0.249634662565 -0.0313683072313 0)
(-0.251383368219 -0.0264303341111 0)
(-0.252746481396 -0.0216708009337 0)
(-0.253725066865 -0.0170740579665 0)
(-0.254321059567 -0.0126262904505 0)
(-0.254537791462 -0.00831491596709 0)
(-0.254376822265 -0.00412874924095 0)
(-0.25383051644 -6.19933354186e-05 0)
(-0.252911193045 0.00388089552449 0)
(-0.251638662516 0.00770435351163 0)
(-0.249999844811 0.0114227665239 0)
(-0.248007431378 0.0150399028477 0)
(-0.245669272985 0.0185606350848 0)
(-0.242994943055 0.0219900682028 0)
(-0.239994995472 0.0253337489723 0)
(-0.236680795952 0.0285979028472 0)
(-0.23306429669 0.0317897018883 0)
(-0.229157759831 0.0349175267956 0)
(-0.224973399448 0.0379911931618 0)
(-0.220522925064 0.0410221035917 0)
(-0.215816982219 0.0440232756676 0)
(-0.21086450808 0.0470091883157 0)
(-0.205672043692 0.0499953878022 0)
(-0.200243066668 0.0529978107382 0)
(-0.194577461673 0.0560317710433 0)
(-0.188671249976 0.0591106442199 0)
(-0.182516640277 0.0622443696645 0)
(-0.176102669435 0.0654376467282 0)
(-0.169416257474 0.068688466547 0)
(-0.16244354142 0.0719868197624 0)
(-0.155172574514 0.0753129151196 0)
(-0.147594421035 0.0786387309966 0)
(-0.139707029893 0.0819253526244 0)
(-0.131516760623 0.0851273230314 0)
(-0.123040723454 0.088193059722 0)
(-0.114309906869 0.0910666820486 0)
(-0.105366875283 0.0936964609181 0)
(-0.0962696945789 0.0960314612396 0)
(-0.0870947684727 0.0980289216873 0)
(-0.0779083676169 0.0996707397874 0)
(-0.0688495853645 0.100929296646 0)