/*--------------------------------*- C++ -*----------------------------------*\
| =========                 |                                                 |
| \\      /  F ield         | OpenFOAM: The Open Source CFD Toolbox           |
|  \\    /   O peration     | Version:  v1806                                 |
|   \\  /    A nd           | Web:      www.OpenFOAM.com                      |
|    \\/     M anipulation  |                                                 |
\*---------------------------------------------------------------------------*/
FoamFile
{
    version     2.0;
    format      ascii;
    class       volVectorField;
    location    "700";
    object      U;
}
// * * * * * * * * * * * * * * * * * * * * * * * * * * * * * * * * * * * * * //

dimensions      [0 1 -1 0 0 0 0];


internalField   nonuniform List<vector> 
6400
(
(0.00913741574857 0.0192087320669 0)
(0.0228912990509 0.0128807011619 0)
(0.0297072157167 0.00977851587428 0)
(0.0281995767825 0.00776457822327 0)
(0.0229099138878 -0.000171320649202 0)
(-0.00946113866386 -0.0152682131821 0)
(-0.0362282502111 -0.0158627240358 0)
(-0.060557466129 -0.0150087369475 0)
(-0.0855536534072 -0.0144400462992 0)
(-0.110045813889 -0.0138384125438 0)
(-0.133766088319 -0.0131592359777 0)
(-0.156483696367 -0.0124218631158 0)
(-0.178040931003 -0.0116524207215 0)
(-0.198340353026 -0.0108741707751 0)
(-0.217333625269 -0.0101053965639 0)
(-0.235010504812 -0.00935941877334 0)
(-0.251388986204 -0.00864522444183 0)
(-0.266506903155 -0.00796825828035 0)
(-0.280415070358 -0.00733120609512 0)
(-0.2931718952 -0.00673469870699 0)
(-0.304839302421 -0.00617790773867 0)
(-0.315479773826 -0.00565902735078 0)
(-0.325154296121 -0.00517564847593 0)
(-0.333921021663 -0.00472503869493 0)
(-0.34183447017 -0.00430434326232 0)
(-0.348945126914 -0.003910722771 0)
(-0.355299321863 -0.00354144119785 0)
(-0.360939297688 -0.00319391567998 0)
(-0.365903394455 -0.00286573615116 0)
(-0.370226293839 -0.00255466004187 0)
(-0.373939288342 -0.00225858704767 0)
(-0.377070569179 -0.00197552057337 0)
(-0.379645497769 -0.00170349549844 0)
(-0.381686702392 -0.00144037112365 0)
(-0.383213723134 -0.00118341433814 0)
(-0.384242232859 -0.00092905939747 0)
(-0.384783941172 -0.000673711665678 0)
(-0.384850568956 -0.000415866647344 0)
(-0.384449177282 -0.000157149070328 0)
(-0.383581966679 9.7905223341e-05 0)
(-0.382263598459 0.000346465088351 0)
(-0.380506624483 0.000588415604787 0)
(-0.37832290778 0.000824405596359 0)
(-0.375722847663 0.00105534047649 0)
(-0.372715208301 0.00128219998168 0)
(-0.369307074098 0.00150597339443 0)
(-0.365503862884 0.00172763139215 0)
(-0.36130937385 0.00194810675002 0)
(-0.356725869981 0.00216827438765 0)
(-0.351754202168 0.00238892772886 0)
(-0.346393983584 0.00261075152221 0)
(-0.340643821205 0.0028342925515 0)
(-0.334501607408 0.0030599310636 0)
(-0.327964868926 0.00328785631109 0)
(-0.321031163319 0.00351805058414 0)
(-0.313698505028 0.00375028622702 0)
(-0.3059657945 0.00398414059466 0)
(-0.297833215525 0.00421903337201 0)
(-0.289302558528 0.00445429046109 0)
(-0.280377421529 0.00468923761723 0)
(-0.2710632361 0.00492332650034 0)
(-0.261367063363 0.00515629443236 0)
(-0.251297105212 0.00538835835297 0)
(-0.240861878634 0.00562044207652 0)
(-0.230069005432 0.00585443483769 0)
(-0.218923574254 0.00609347857565 0)
(-0.207426041465 0.00634228065375 0)
(-0.195569661651 0.0066074393542 0)
(-0.18333746041 0.00689775831589 0)
(-0.170698740314 0.00722451703093 0)
(-0.157605118015 0.00760160922134 0)
(-0.143986495184 0.00804543063944 0)
(-0.129748653672 0.00857413412525 0)
(-0.114774656963 0.00920488011208 0)
(-0.0989254632015 0.00994695771648 0)
(-0.0820259551211 0.0107923335528 0)
(-0.0638777377207 0.0117105739629 0)
(-0.0445656629217 0.0126092557368 0)
(-0.0254552002802 0.0129969774438 0)
(-0.0100690199005 0.0106471387915 0)
(0.000204519964975 0.0284444480014 0)
(0.012032304131 0.0154800168717 0)
(0.0071269316309 -0.00156129922163 0)
(-0.0218964759754 -0.0217392335278 0)
(-0.0405355125918 -0.0300851506289 0)
(-0.0633752365247 -0.0357237946106 0)
(-0.0871165895154 -0.0371679224786 0)
(-0.111671439527 -0.0372577118635 0)
(-0.136560738179 -0.0368063963326 0)
(-0.160915006434 -0.0358631189087 0)
(-0.184379084612 -0.0345247754329 0)
(-0.206705703935 -0.0328970915565 0)
(-0.227741883064 -0.031076786895 0)
(-0.247401782826 -0.0291456803165 0)
(-0.265651051176 -0.0271692822117 0)
(-0.28249366766 -0.0251976084245 0)
(-0.29796099688 -0.0232669902698 0)
(-0.31210284503 -0.0214022768022 0)
(-0.324980384424 -0.0196190836 0)
(-0.336660751157 -0.0179258870182 0)
(-0.347213076344 -0.016325856703 0)
(-0.356705695533 -0.0148183837346 0)
(-0.365204290321 -0.0134003046777 0)
(-0.372770742038 -0.0120668476093 0)
(-0.379462511564 -0.0108123388105 0)
(-0.385332394172 -0.00963071256098 0)
(-0.390428531966 -0.00851586429751 0)
(-0.394794594825 -0.00746188143122 0)
(-0.398470061316 -0.00646317944074 0)
(-0.401490544796 -0.00551456487269 0)
(-0.403888127509 -0.00461124780349 0)
(-0.405691721811 -0.00374882023207 0)
(-0.406927524427 -0.00292314343688 0)
(-0.407619460449 -0.00212991748812 0)
(-0.407788900172 -0.00136394615308 0)
(-0.407452767806 -0.000619789648229 0)
(-0.406621216331 0.000104106503099 0)
(-0.405329876391 0.000805654538004 0)
(-0.403605902722 0.00148577158385 0)
(-0.401477239805 0.00214594360929 0)
(-0.398955982824 0.00278662160084 0)
(-0.396052443097 0.00340953950341 0)
(-0.392774582233 0.00401684554068 0)
(-0.389128902327 0.00461084547282 0)
(-0.385120632177 0.00519389032379 0)
(-0.380753767946 0.00576832387459 0)
(-0.376031073803 0.0063364450014 0)
(-0.370954088276 0.00690046585511 0)
(-0.365523158209 0.00746245809186 0)
(-0.359737514812 0.0080242852012 0)
(-0.353595402888 0.00858752259742 0)
(-0.347094271247 0.00915337003724 0)
(-0.340231028206 0.00972256344269 0)
(-0.33300236056 0.0102952954814 0)
(-0.3254051075 0.0108711560139 0)
(-0.317436673004 0.0114491046785 0)
(-0.309095451718 0.012027488153 0)
(-0.300381235019 0.0126041139492 0)
(-0.29129555675 0.0131763907939 0)
(-0.281841932494 0.0137415433787 0)
(-0.272025942293 0.0142969068709 0)
(-0.261855105155 0.014840303137 0)
(-0.251338495035 0.0153704972499 0)
(-0.240486051697 0.0158877302495 0)
(-0.229307547681 0.0163943186422 0)
(-0.217811180165 0.0168953113746 0)
(-0.206001763265 0.0173991933404 0)
(-0.193878519285 0.0179186057432 0)
(-0.181432503257 0.018471007421 0)
(-0.168643651276 0.01907924264 0)
(-0.155477472097 0.0197717922294 0)
(-0.141881704736 0.0205824093051 0)
(-0.127783868091 0.0215484454733 0)
(-0.11309098384 0.0227051465965 0)
(-0.0976902327873 0.0240712984165 0)
(-0.0814447789528 0.0256268287585 0)
(-0.0641973786062 0.0272897917079 0)
(-0.0459005561607 0.02882705497 0)
(-0.0272440833025 0.0293451606755 0)
(-0.0110721113283 0.0259148254097 0)
(-0.00746112626488 0.0268871094255 0)
(-0.0153346505992 -0.00502726882554 0)
(-0.0348294049498 -0.02636464156 -8.12821019543e-29)
(-0.0549592784352 -0.0408797489183 5.12182617534e-29)
(-0.075514599383 -0.0512742349581 3.89961537877e-29)
(-0.0969301440871 -0.0582914394061 -3.19333327114e-29)
(-0.118873206416 -0.0611985987593 2.73436076075e-29)
(-0.141350986603 -0.061799774665 -2.43247584709e-29)
(-0.163749182442 -0.0610495437061 0)
(-0.185492214731 -0.0593207022536 0)
(-0.206255176626 -0.0568919245363 0)
(-0.22583214658 -0.0539844670934 0)
(-0.244113653461 -0.0507779361134 0)
(-0.261055775583 -0.0474153248414 0)
(-0.276660722555 -0.0440068069702 0)
(-0.290961974941 -0.0406338708275 0)
(-0.30401299401 -0.0373538030674 0)
(-0.315878726298 -0.0342042149682 0)
(-0.326629403142 -0.0312073053549 0)
(-0.336336195921 -0.0283736484039 0)
(-0.345068325426 -0.0257053986724 0)
(-0.352891269082 -0.0231988912487 0)
(-0.359865765732 -0.0208466738618 0)
(-0.366047378011 -0.0186390410192 0)
(-0.371486427072 -0.0165651537243 0)
(-0.37622816567 -0.0146138280182 0)
(-0.380313093161 -0.0127740670516 0)
(-0.383777347031 -0.0110353983685 0)
(-0.386653122698 -0.00938806643465 0)
(-0.388969078976 -0.00782312592283 -6.7626487218e-29)
(-0.390750715664 -0.00633247556734 6.75720914164e-29)
(-0.392020783697 -0.00490883310543 0)
(-0.392799980671 -0.00354554744111 0)
(-0.39310768541 -0.00223611231598 0)
(-0.392960488724 -0.000973899195799 0)
(-0.392366407151 0.000245657749095 0)
(-0.391355959448 0.00141880510156 0)
(-0.389945445482 0.00254436315316 0)
(-0.388139545937 0.0036295733872 0)
(-0.385948458694 0.00468085155953 0)
(-0.383380973461 0.00570342652824 0)
(-0.380445388037 0.00670114558446 0)
(-0.377148925999 0.00767752872157 0)
(-0.373497707452 0.00863602409164 0)
(-0.369496721095 0.00958008378248 0)
(-0.365149790848 0.0105131684799 0)
(-0.360459542459 0.0114387147641 0)
(-0.355427385441 0.0123600725229 0)
(-0.350053525797 0.0132804138518 0)
(-0.34433702408 0.0142026154052 0)
(-0.338275911923 0.0151291185392 0)
(-0.33186737762 0.0160617753505 0)
(-0.325108027324 0.0170016923866 0)
(-0.317994222568 0.0179490877867 0)
(-0.310522487342 0.0189031804588 0)
(-0.302689969201 0.0198621321153 0)
(-0.29449492931 0.0208230632152 0)
(-0.285937226986 0.021782162814 0)
(-0.277018756338 0.0227349086297 0)
(-0.267743787291 0.0236764089053 0)
(-0.258119158983 0.0246018736792 0)
(-0.24815427221 0.0255072165193 0)
(-0.237860830829 0.026389778699 0)
(-0.227252285605 0.0272491670341 0)
(-0.216342946378 0.0280881790922 0)
(-0.205146742915 0.0289137930858 0)
(-0.193675616428 0.029738191486 0)
(-0.181937520447 0.030579800383 0)
(-0.169934131248 0.0314641144351 0)
(-0.157658230383 0.0324244219054 0)
(-0.145090723968 0.0335020363933 0)
(-0.132197646125 0.0347454146327 0)
(-0.118927324309 0.0362075669956 0)
(-0.105207796868 0.0379388655783 0)
(-0.0909455753196 0.039969499829 0)
(-0.0760256665363 0.0422768094848 0)
(-0.0603022243301 0.0447318352521 0)
(-0.0436110889232 0.046951817954 0)
(-0.0262860297596 0.04770411043 0)
(-0.0101829773836 0.0437172680871 0)
(-0.0185037148057 0.0122109349603 0)
(-0.0346874153036 -0.0234051321226 0)
(-0.0544684411486 -0.0445443017237 0)
(-0.0750846390593 -0.0606708552059 0)
(-0.0956534194729 -0.0720094203678 0)
(-0.116194587994 -0.079310384647 0)
(-0.136629428226 -0.082609197422 0)
(-0.156892445995 -0.0831503714258 0)
(-0.176630601455 -0.0818149748541 0)
(-0.195546822363 -0.0791520992651 0)
(-0.213449560501 -0.0755788883612 0)
(-0.230225543318 -0.0714160487758 0)
(-0.245828906956 -0.0669131896995 0)
(-0.260260214419 -0.0622614458721 0)
(-0.273550572824 -0.057602738084 0)
(-0.285749198677 -0.0530379829007 0)
(-0.296914454007 -0.0486348263621 0)
(-0.307107717255 -0.0444348024411 0)
(-0.31638946436 -0.0404596862895 0)
(-0.324816973037 -0.0367168815477 0)
(-0.332443151893 -0.0332037963038 0)
(-0.339316102624 -0.0299112606669 0)
(-0.345479128307 -0.0268261010849 0)
(-0.35097099107 -0.0239330135431 0)
(-0.355826291557 -0.0212158795481 0)
(-0.360075894566 -0.0186586551543 0)
(-0.363747359087 -0.0162459409785 0)
(-0.366865350472 -0.0139633175703 0)
(-0.369452014389 -0.0117975135462 0)
(-0.371527290131 -0.00973647127022 0)
(-0.373109189085 -0.00776935501239 0)
(-0.374214210118 -0.00588644035578 0)
(-0.374858127802 -0.00407870935424 0)
(-0.375056398965 -0.0023374103559 0)
(-0.374820938573 -0.000655079848462 0)
(-0.374152291408 0.000971377079378 0)
(-0.373096111652 0.00254020316114 0)
(-0.371643448447 0.00405536318959 0)
(-0.369808184913 0.00552308941086 0)
(-0.367599628582 0.00694817202422 0)
(-0.36502668819 0.00833553072699 0)
(-0.362097473166 0.00968984554965 0)
(-0.358819156668 0.0110157015854 0)
(-0.355197912094 0.012317683976 0)
(-0.351238847422 0.0136004265592 0)
(-0.346945934034 0.0148686139981 8.14171479222e-29)
(-0.342321938251 0.0161269399774 -8.21753794665e-29)
(-0.33736836953 0.0173800215093 0)
(-0.332085461345 0.0186322693629 0)
(-0.326472201531 0.0198877167838 0)
(-0.320526428537 0.0211498125436 0)
(-0.314245008158 0.0224211893721 0)
(-0.307624101393 0.0237034246482 0)
(-0.300659527803 0.024996815922 0)
(-0.29334722025 0.0263001986228 0)
(-0.285683756706 0.0276108364766 0)
(-0.277666943612 0.0289244159318 0)
(-0.269296413855 0.0302351741071 1.20541039511e-28)
(-0.260574192632 0.0315361849808 -1.235707861e-28)
(-0.251505180102 0.0328198184831 0)
(-0.242097495306 0.0340783837617 0)
(-0.232362621029 0.0353049612431 0)
(-0.222315300185 0.0364944006161 0)
(-0.211973130916 0.0376444848453 0)
(-0.201355828246 0.0387572022195 0)
(-0.190484140591 0.0398401133098 0)
(-0.179378445855 0.0409076971221 0)
(-0.168056864878 0.0419828892065 0)
(-0.156533217143 0.043098039658 0)
(-0.144814728028 0.0442960111059 0)
(-0.132899142085 0.0456308422923 0)
(-0.12077187375 0.0471666316067 0)
(-0.108403120045 0.0489749468811 0)
(-0.0957436648525 0.0511282981681 0)
(-0.0827207176365 0.0536830862254 0)
(-0.0692378876674 0.0566423755092 0)
(-0.0551543026591 0.0598850810117 0)
(-0.0401871964067 0.0630090749477 0)
(-0.024595994548 0.0645664636231 0)
(-0.00907419097662 0.0607590140587 0)
(-0.02471964336 -0.0189767897706 0)
(-0.0415858393302 -0.0444645856245 0)
(-0.0637818479325 -0.0653395191986 0)
(-0.085269833365 -0.0813332871339 0)
(-0.105851403038 -0.0923857245152 0)
(-0.12560855111 -0.0991099224069 0)
(-0.144625974709 -0.101987457441 0)
(-0.162930454811 -0.101982579413 0)
(-0.180394186554 -0.0998776098912 0)
(-0.196915765537 -0.0962764738964 0)
(-0.212435056878 -0.0916642409434 0)
(-0.226930449583 -0.0864210370147 0)
(-0.240413364956 -0.0808398249146 0)
(-0.252916579169 -0.0751398129953 0)
(-0.264484623978 -0.0694788084276 0)
(-0.275166458488 -0.063964809124 0)
(-0.285010760709 -0.0586667184103 0)
(-0.294063329908 -0.0536238498462 0)
(-0.302365975859 -0.0488539704232 0)
(-0.309956319683 -0.0443598040619 0)
(-0.31686807039 -0.0401340769142 0)
(-0.323131490056 -0.0361632888127 0)
(-0.328773884741 -0.0324304387713 0)
(-0.333820042779 -0.0289169319317 0)
(-0.338292598003 -0.0256038696413 0)
(-0.342212321725 -0.0224728881069 0)
(-0.345598362383 -0.0195066730617 0)
(-0.34846844757 -0.0166892434857 0)
(-0.350839038317 -0.0140060768432 0)
(-0.352725435449 -0.0114441453703 0)
(-0.354141914229 -0.00899190290878 -7.26437269205e-29)
(-0.355102241085 -0.00663910406993 7.29186958616e-29)
(-0.355620459878 -0.00437622473694 0)
(-0.355709947251 -0.00219415851711 0)
(-0.355377883432 -8.67663881999e-05 0)
(-0.354631058165 0.00194466082981 0)
(-0.353508404781 0.00390328904781 0)
(-0.352002519946 0.00579921136616 0)
(-0.350126830646 0.00763804111687 0)
(-0.347890067527 0.00942551300382 0)
(-0.345300880873 0.0111671868463 0)
(-0.34236732045 0.0128684931547 0)
(-0.339096698688 0.0145348578061 0)
(-0.335495464471 0.0161717992083 0)
(-0.331569082364 0.0177849809923 0)
(-0.327321910416 0.0193802137976 0)
(-0.32275708244 0.0209634022456 0)
(-0.317876407536 0.0225404333749 0)
(-0.312680304068 0.0241170042496 0)
(-0.307167788029 0.0256983899575 0)
(-0.301336536817 0.0272891585566 0)
(-0.295183048609 0.0288928465098 0)
(-0.288702913907 0.030511616398 0)
(-0.281891208769 0.0321459272819 0)
(-0.274743009374 0.0337942548547 0)
(-0.267254014949 0.0354529035921 0)
(-0.259421252405 0.0371159543728 0)
(-0.25124382194 0.0387753876412 0)
(-0.242723627773 0.0404214191718 0)
(-0.233866036898 0.0420430630035 0)
(-0.22468040933 0.0436289305647 0)
(-0.21518041716 0.0451682968478 0)
(-0.205384113783 0.046652349322 0)
(-0.195313676544 0.0480756883184 0)
(-0.18499480704 0.0494378982728 0)
(-0.174455713411 0.0507453501028 0)
(-0.163725986317 0.0520126171447 0)
(-0.152834571309 0.0532648613866 0)
(-0.141807907583 0.0545384973547 0)
(-0.1306680275 0.0558826519966 0)
(-0.119429553919 0.057360821398 0)
(-0.10809660375 0.0590491767854 0)
(-0.0966603972117 0.0610343823794 0)
(-0.0850949583642 0.0634095278104 0)
(-0.0733491719255 0.0662597484711 0)
(-0.0613463395671 0.0696251711075 0)
(-0.0489750498604 0.0734198833312 0)
(-0.0358142439366 0.0773222992584 0)
(-0.0223274585833 0.0798045249374 0)
(-0.00781610047569 0.0764658067596 0)
(-0.0221502206302 -0.0437761292478 0)
(-0.0423255489686 -0.0688571579759 0)
(-0.0668307078854 -0.0879345222193 0)
(-0.0888539011232 -0.102505856857 0)
(-0.109283024285 -0.112338559965 0)
(-0.128284517234 -0.117927302544 0)
(-0.146065620764 -0.11984509338 0)
(-0.16276564741 -0.118911965252 0)
(-0.178423300424 -0.115851797903 0)
(-0.193073622512 -0.11127566082 0)
(-0.206755736059 -0.105689166955 0)
(-0.219515772952 -0.0994938629155 0)
(-0.231404546755 -0.0929976275953 0)
(-0.242472684019 -0.086427108163 0)
(-0.25276715754 -0.0799416287545 0)
(-0.262329375011 -0.0736469976427 0)
(-0.271194799603 -0.0676081690824 0)
(-0.279393550595 -0.0618601006306 0)
(-0.286951449816 -0.0564165549598 0)
(-0.293891118306 -0.0512769091443 0)
(-0.300232902981 -0.0464312227672 0)
(-0.305995553955 -0.0418638920125 0)
(-0.311196662247 -0.0375562151231 0)
(-0.315852908183 -0.0334881517441 0)
(-0.319980182865 -0.0296395013943 0)
(-0.323593638816 -0.0259906703817 0)
(-0.326707715949 -0.0225231496738 0)
(-0.329336165987 -0.0192197901518 0)
(-0.331492054372 -0.0160649404583 0)
(-0.333187725716 -0.0130445034381 0)
(-0.334434922089 -0.0101459345547 0)
(-0.335245526169 -0.00735808270821 0)
(-0.335632320797 -0.00467074696214 0)
(-0.335605951419 -0.0020746864466 0)
(-0.335166411468 0.000435783758453 0)
(-0.334348734933 0.00285842463037 0)
(-0.333148042604 0.00519755057418 0)
(-0.331576888977 0.00746411652913 0)
(-0.329645661425 0.00966403450021 0)
(-0.327363740423 0.0118034821398 0)
(-0.324740016287 0.013888533795 0)
(-0.321782877327 0.0159252680021 0)
(-0.318500115979 0.0179198854065 0)
(-0.314898789743 0.0198788100968 0)
(-0.310985058744 0.021808749298 0)
(-0.306764009745 0.0237166977381 0)
(-0.302239477839 0.0256098761245 0)
(-0.297413881495 0.0274955947525 0)
(-0.292288091679 0.0293810359556 0)
(-0.28686136 0.0312729540565 0)
(-0.281131333465 0.0331772988596 0)
(-0.27509418393 0.0350987779478 0)
(-0.268744877452 0.0370403845842 0)
(-0.262077600424 0.03900293113 0)
(-0.25508634718 0.0409846370321 0)
(-0.247765658362 0.042980828014 0)
(-0.240111479999 0.0449838077696 0)
(-0.232122099616 0.0469829505168 0)
(-0.223799086556 0.0489650754204 0)
(-0.215148162032 0.0509151187148 0)
(-0.206179971124 0.052817066148 0)
(-0.196910591318 0.0546553205305 0)
(-0.187361813241 0.0564161604634 0)
(-0.177561001131 0.058089709809 0)
(-0.167540705041 0.0596716653185 0)
(-0.157337391668 0.0611659795948 0)
(-0.146991051676 0.062585544402 0)
(-0.136542327689 0.0639566479599 0)
(-0.126030961147 0.0653183903525 0)
(-0.115493999344 0.0667241759302 0)
(-0.104963041788 0.0682458893448 0)
(-0.0944598511728 0.0699705547302 0)
(-0.0839938465578 0.0719976277322 0)
(-0.0735607589152 0.0744391017119 0)
(-0.063129508877 0.0774087420857 0)
(-0.052636775528 0.0809901954091 0)
(-0.0420411017536 0.0851416859668 0)
(-0.0307185021556 0.0896632106697 0)
(-0.0196199271966 0.0930884694524 0)
(-0.00645264490037 0.0904479980232 0)
(-0.0198697212908 -0.0723428719319 0)
(-0.0411271028177 -0.0947267332608 0)
(-0.0664334438158 -0.111249900016 0)
(-0.0883239294483 -0.123726701316 0)
(-0.108328835216 -0.131772487163 0)
(-0.126543128331 -0.135821122455 0)
(-0.143247375738 -0.13643323279 0)
(-0.15865194993 -0.1343379728 0)
(-0.172901517276 -0.130213706296 0)
(-0.186119369089 -0.124655308292 0)
(-0.198409660971 -0.11815999712 1.11530634842e-28)
(-0.209860898525 -0.111123007851 -1.09996256719e-28)
(-0.220546373117 -0.10384466276 0)
(-0.230524458712 -0.0965427316777 0)
(-0.23984010692 -0.0893673845643 0)
(-0.248527181397 -0.082416129238 0)
(-0.256611195587 -0.0757471822099 0)
(-0.264111917676 -0.0693905308225 0)
(-0.27104551046 -0.0633565670496 0)
(-0.277426080113 -0.0576425406115 0)
(-0.283266665027 -0.0522372344284 0)
(-0.288579778894 -0.0471242808465 0)
(-0.293377645624 -0.0422844809858 0)
(-0.2976722495 -0.0376974105238 0)
(-0.301475295969 -0.0333425194573 0)
(-0.304798148537 -0.0291998716049 0)
(-0.307651783387 -0.0252506249688 0)
(-0.310046772463 -0.0214773262354 0)
(-0.311993258939 -0.0178640764 0)
(-0.31350090761 -0.0143966009548 0)
(-0.314579076597 -0.0110622178878 0)
(-0.315237708632 -0.00784968840632 8.0153194016e-29)
(-0.315487928965 -0.00474910319363 -8.0859106311e-29)
(-0.315337662491 -0.00175230521693 0)
(-0.31478216577 0.00114593504699 0)
(-0.313862990602 0.00394661321559 0)
(-0.312568420445 0.00665504984665 0)
(-0.310912565809 0.00928035725553 0)
(-0.308904548014 0.011829617029 0)
(-0.306553719335 0.0143094103271 0)
(-0.303869301543 0.0167261420608 0)
(-0.300860303352 0.0190862982425 0)
(-0.29753536326 0.0213966321023 0)
(-0.293902558745 0.0236642995966 0)
(-0.289969186557 0.0258969401129 0)
(-0.285741520572 0.0281026916083 0)
(-0.281224557719 0.0302901261986 0)
(-0.276421769283 0.0324680916771 0)
(-0.271334882451 0.0346454469454 0)
(-0.265963723939 0.0368306854521 0)
(-0.260306162102 0.0390314505697 0)
(-0.25435818647 0.0412539589155 0)
(-0.248114162956 0.043502362208 0)
(-0.241567291963 0.045778100455 0)
(-0.234710280938 0.0480793109517 0)
(-0.227536226017 0.0504003638719 0)
(-0.220039661522 0.0527316216558 0)
(-0.212217737302 0.0550594611824 0)
(-0.204071430702 0.0573666615179 0)
(-0.195606636439 0.0596332329663 0)
(-0.186835289887 0.061837357922 0)
(-0.177776032471 0.0639572840622 0)
(-0.168454842757 0.0659727485668 0)
(-0.158904813374 0.0678678992817 0)
(-0.149166519734 0.0696324457166 0)
(-0.139285275188 0.0712668323424 0)
(-0.12931343759 0.0727795939982 0)
(-0.119304181041 0.0741971464477 0)
(-0.109312587144 0.0755602542411 0)
(-0.0993908369973 0.0769239457788 0)
(-0.0895887184375 0.0783678696541 0)
(-0.0799473743581 0.079990745949 0)
(-0.0704913145491 0.0819035433851 0)
(-0.061236756936 0.0842361385933 0)
(-0.0521723202679 0.0871303518473 0)
(-0.0432318219506 0.0907171876473 0)
(-0.0344969957102 0.0950078096095 0)
(-0.0250354128482 0.099912974728 0)
(-0.0165469331266 0.10418076262 0)
(-0.00500463424478 0.102416813888 0)
(-0.0180529770827 -0.100493561718 0)
(-0.0392474922224 -0.120398942791 0)
(-0.0641875507083 -0.134368211268 0)
(-0.0853782519408 -0.144526029797 0)
(-0.104690474585 -0.15052929621 0)
(-0.122053533264 -0.15281844396 0)
(-0.137782178403 -0.151939312863 0)
(-0.152113697671 -0.148564515927 0)
(-0.1652481194 -0.143331514762 0)
(-0.177356267809 -0.136805357574 0)
(-0.188577524511 -0.129457081208 0)
(-0.199022093298 -0.121658241819 0)
(-0.208773437855 -0.113687758034 0)
(-0.217892122489 -0.105745081888 0)
(-0.226420611347 -0.0979658164249 0)
(-0.234388161613 -0.0904368071687 0)
(-0.241815172994 -0.0832091350309 0)
(-0.248716601214 -0.0763084644308 0)
(-0.255104355229 -0.0697428608943 0)
(-0.260988799645 -0.0635085007793 0)
(-0.266379578154 -0.0575937660273 0)
(-0.271285984078 -0.0519821621558 0)
(-0.275717068148 -0.0466543996881 0)
(-0.279681621188 -0.0415898831707 0)
(-0.283188120573 -0.0367677752129 0)
(-0.286244691335 -0.0321677478018 0)
(-0.288859104981 -0.0277704975677 0)
(-0.29103880826 -0.0235580862466 0)
(-0.292790943268 -0.0195141612415 0)
(-0.294122362864 -0.0156240710513 0)
(-0.29503989395 -0.0118748152898 0)
(-0.295551194255 -0.00825485573404 0)
(-0.295664959619 -0.00475430482805 0)
(-0.295386031636 -0.00136605253236 0)
(-0.294706653124 0.00191387427767 0)
(-0.293674312349 0.0050868888903 0)
(-0.292269640952 0.00815937214266 0)
(-0.29050814697 0.0111395480243 0)
(-0.288398364408 0.0140342706999 0)
(-0.285949865384 0.0168499884081 0)
(-0.283172488052 0.0195931121723 0)
(-0.280076190439 0.0222703005809 0)
(-0.276670835629 0.0248886781868 0)
(-0.272965949643 0.0274560025706 0)
(-0.268970442506 0.0299807745398 9.49634428929e-29)
(-0.264692292782 0.0324722762123 -9.55289398162e-29)
(-0.260138203585 0.0349405158703 0)
(-0.255313248382 0.0373960564127 0)
(-0.250220536589 0.0398497066551 0)
(-0.244860939903 0.0423120616558 0)
(-0.239232928019 0.044792891798 0)
(-0.233332566296 0.047300397108 0)
(-0.227153734403 0.0498403565322 0)
(-0.220688610043 0.0524152436244 0)
(-0.213928432144 0.0550234009661 0)
(-0.206864561889 0.0576583364758 0)
(-0.199489760555 0.0603083372589 0)
(-0.191799655556 0.0629563781924 0)
(-0.18379435435 0.0655804327487 0)
(-0.175479622833 0.0681547137369 0)
(-0.166868668807 0.0706501228763 0)
(-0.157982667229 0.073037460897 0)
(-0.148852352052 0.0752878205102 0)
(-0.139516557331 0.0773781368734 0)
(-0.130025864594 0.0792890185389 0)
(-0.120433520535 0.0810172861918 0)
(-0.11080828139 0.0825630630554 0)
(-0.101214009715 0.0839517827793 0)
(-0.0917268883335 0.0852260900711 0)
(-0.0824132048375 0.0864395010813 0)
(-0.073341301255 0.0876776433598 0)
(-0.0645793304102 0.089054308178 0)
(-0.0561639056468 0.0906920570833 0)
(-0.0481314769014 0.0927375165478 0)
(-0.0404944747551 0.0953605326417 0)
(-0.0331603869961 0.0987363905918 0)
(-0.0263896297793 0.102948187118 0)
(-0.0188368186297 0.107965296789 0)
(-0.013132972449 0.112883919569 0)
(-0.00347668199572 0.112129568955 0)
(-0.016429131331 -0.126907792448 0)
(-0.036949519288 -0.144976246337 0)
(-0.060911906763 -0.156643858628 0)
(-0.0810739372861 -0.164524027355 0)
(-0.0995029474873 -0.168450264493 0)
(-0.115958246264 -0.168922088676 0)
(-0.130772398133 -0.166492535084 0)
(-0.14417850628 -0.161804997278 0)
(-0.156396905786 -0.15546268703 0)
(-0.167615974892 -0.147995569396 0)
(-0.177988105422 -0.139839678703 0)
(-0.187630611556 -0.131334213241 0)
(-0.196629404735 -0.122730192331 0)
(-0.205044785076 -0.114204828508 0)
(-0.212917850148 -0.105877343383 0)
(-0.22027637497 -0.0978234372443 0)
(-0.227139536929 -0.090087187681 0)
(-0.233521301384 -0.0826901904311 0)
(-0.239432606149 -0.0756383070957 0)
(-0.244882627408 -0.0689265603697 0)
(-0.249879430388 -0.062542685304 0)
(-0.254430260017 -0.0564697326646 0)
(-0.258541654758 -0.0506880016359 0)
(-0.262219498696 -0.0451764850985 0)
(-0.265469075414 -0.0399139464168 0)
(-0.268295152832 -0.0348797055974 0)
(-0.270702100918 -0.030054188919 0)
(-0.272694012867 -0.0254192935981 0)
(-0.274274799982 -0.0209586278522 0)
(-0.27544833066 -0.0166576377603 0)
(-0.276218879077 -0.0125034873582 0)
(-0.276591826895 -0.00848463395023 0)
(-0.276572904372 -0.00459104153735 9.04122343629e-29)
(-0.27616294016 -0.000816698951477 -9.17632192418e-29)
(-0.275352364354 0.00283882448058 0)
(-0.274194487772 0.00637759472978 0)
(-0.272663025266 0.00980942303242 0)
(-0.270774303065 0.0131406980886 0)
(-0.268536559412 0.0163773137241 0)
(-0.265959786719 0.0195250439199 0)
(-0.263054654331 0.0225898789938 0)
(-0.259832307421 0.0255782938612 0)
(-0.256304115503 0.0284974833958 0)
(-0.252481396199 0.0313555634221 0)
(-0.24837508862 0.034161723202 0)
(-0.243995367397 0.0369263049379 0)
(-0.239351200327 0.0396607779095 0)
(-0.234449868127 0.0423775709412 0)
(-0.229296481237 0.0450897290871 0)
(-0.223893546775 0.0478103682711 0)
(-0.218240652027 0.0505519175943 0)
(-0.212334330371 0.0533251718459 0)
(-0.206168202377 0.0561381684031 0)
(-0.199733473641 0.0589949790796 0)
(-0.193019773252 0.061894598014 0)
(-0.186016446783 0.0648298619331 0)
(-0.178714115723 0.0677868926823 0)
(-0.171106404484 0.0707449128145 0)
(-0.163192377261 0.0736760738007 0)
(-0.154977145239 0.0765481402404 0)
(-0.14647537852 0.0793226683995 0)
(-0.137710211083 0.0819620951795 0)
(-0.128718527452 0.0844257366493 0)
(-0.119543009437 0.086683067782 0)
(-0.110249177965 0.0887002209661 0)
(-0.100891836523 0.0904720302537 0)
(-0.0915678249494 0.0919846281696 0)
(-0.0823398260449 0.0932600965404 0)
(-0.0733194671505 0.0943444382002 0)
(-0.0645858409746 0.0952887756023 0)
(-0.0562198837055 0.0961786535434 0)
(-0.0483329959098 0.0971473638707 0)
(-0.0409712140376 0.0983316915547 0)
(-0.034191259819 0.0998928104585 0)
(-0.0280383361953 0.102032020733 0)
(-0.0223767885743 0.104960188912 0)
(-0.0176710863597 0.108862437113 0)
(-0.0121364799446 0.113706106795 0)
(-0.0093534262358 0.119012793396 0)
(-0.00185402926427 0.119352720356 0)
(-0.0149036073888 -0.151463070746 0)
(-0.0344108541603 -0.168137699954 0)
(-0.0570940180058 -0.177745314333 0)
(-0.0760637035231 -0.183492274569 0)
(-0.0934997559108 -0.185425962012 0)
(-0.109015023945 -0.184126655474 0)
(-0.122955593035 -0.180172807788 0)
(-0.135532174124 -0.174197263085 0)
(-0.146964433326 -0.166775960914 0)
(-0.157439139383 -0.158403919983 0)
(-0.167107448774 -0.149479892412 0)
(-0.176084792466 -0.140308369435 0)
(-0.184455219412 -0.131111128583 0)
(-0.192277846619 -0.122042828138 0)
(-0.199593535102 -0.113206596736 0)
(-0.206430624229 -0.104667408321 0)
(-0.212809248675 -0.0964625695255 0)
(-0.218744253096 -0.0886095308539 0)
(-0.224246983872 -0.081111587648 0)
(-0.229326306781 -0.0739620579949 0)
(-0.233989160477 -0.0671474032608 0)
(-0.238240874173 -0.0606496105391 0)
(-0.242085392235 -0.0544480378871 0)
(-0.245525483705 -0.0485208449987 0)
(-0.248562969904 -0.0428460869112 0)
(-0.251198980223 -0.0374025245586 0)
(-0.253434219882 -0.032170193061 0)
(-0.255269194024 -0.0271307746305 0)
(-0.256704384611 -0.0222678394341 0)
(-0.257740537865 -0.0175669719162 0)
(-0.258379479991 -0.0130156034015 0)
(-0.258624663573 -0.00860236624216 0)
(-0.258478216764 -0.00431720857981 0)
(-0.257933881335 -0.000155375859794 0)
(-0.256998241693 0.00387792351171 0)
(-0.255702686498 0.00778558684195 0)
(-0.254029893751 0.0115812927833 0)
(-0.251994305901 0.0152682195789 0)
(-0.249604646631 0.0188507591901 0)
(-0.246871487655 0.0223336372315 0)
(-0.243806375009 0.0257220974004 0)
(-0.240421647374 0.0290221160341 0)
(-0.236730210836 0.032240651908 0)
(-0.232745271338 0.0353858954219 0)
(-0.228479991781 0.0384674882735 0)
(-0.22394705475 0.0414966765858 0)
(-0.219158126214 0.0444863500678 0)
(-0.214123236217 0.0474509110541 0)
(-0.208850116095 0.0504059204963 0)
(-0.203343556543 0.0533674777401 0)
(-0.197604884882 0.0563512942864 0)
(-0.191631629235 0.0593715177573 0)
(-0.185417501713 0.0624392715078 0)
(-0.178952915206 0.0655609657201 0)
(-0.17222581489 0.0687369110811 0)
(-0.165223274271 0.0719595900267 0)
(-0.157933497771 0.0752128646648 0)
(-0.150347358166 0.0784721164812 0)
(-0.142463196539 0.0817019817595 0)
(-0.134284298608 0.0848640145722 0)
(-0.125828091325 0.0879070572561 0)
(-0.117117129544 0.0907855168602 0)
(-0.108199121323 0.0934415956724 0)
(-0.0991125886967 0.095839329675 0)
(-0.0899525277222 0.0979216001757 0)
(-0.0807527617497 0.0996847431998 0)
(-0.0716717987103 0.101095900753 0)
(-0.0627366892173 0.102170155755 0)