/*--------------------------------*- C++ -*----------------------------------*\
| =========                 |                                                 |
| \\      /  F ield         | OpenFOAM: The Open Source CFD Toolbox           |
|  \\    /   O peration     | Version:  v1806                                 |
|   \\  /    A nd           | Web:      www.OpenFOAM.com                      |
|    \\/     M anipulation  |                                                 |
\*---------------------------------------------------------------------------*/
FoamFile
{
    version     2.0;
    format      ascii;
    class       volVectorField;
    location    "700";
    object      Ua;
}
// * * * * * * * * * * * * * * * * * * * * * * * * * * * * * * * * * * * * * //

dimensions      [0 1 -1 0 0 0 0];


internalField   nonuniform List<vector> 
6400
(
(-0.70941930494 1.32343189476 0)
(-4.72826842836 5.41017352238 0)
(-7.84219520855 8.17775755916 0)
(-9.9914172443 6.24662078454 0)
(-11.2486568306 4.09226872287 0)
(-11.5048541376 -3.7503374451 0)
(-13.14052718 -7.49301468704 0)
(-14.1682131716 -10.9718722032 0)
(-14.9147633497 -14.5755712584 0)
(-15.5277732038 -18.2726107225 0)
(-16.0455425823 -22.0553157101 0)
(-16.4802877305 -25.9069728517 0)
(-16.8433768187 -29.8092409066 0)
(-17.1464625621 -33.746920592 0)
(-17.3994376207 -37.7080609917 0)
(-17.61016035 -41.683008799 0)
(-17.7850008685 -45.6639026303 0)
(-17.9292616735 -49.6445128069 0)
(-18.047369042 -53.6201375511 0)
(-18.1429840295 -57.5874794292 0)
(-18.2191114054 -61.5445192697 0)
(-18.2782101226 -65.4904082698 0)
(-18.3222931182 -69.4253789518 0)
(-18.3530120706 -73.3506725167 0)
(-18.3717283324 -77.2684809161 0)
(-18.3795723227 -81.1819039497 0)
(-18.3774938833 -85.0949226846 0)
(-18.3663031385 -89.0123919418 0)
(-18.3467117113 -92.940051321 0)
(-18.3193573967 -96.8845774389 0)
(-18.2848944766 -100.853665925 0)
(-18.2439950617 -104.856350474 0)
(-18.1978902979 -108.903406528 0)
(-18.1475121081 -113.00866252 0)
(-18.0942056763 -117.185171606 0)
(-18.0219286534 -121.429537069 0)
(-17.9058561648 -125.658532561 0)
(-17.7427798532 -129.689781214 0)
(-17.5495679531 -133.289376492 0)
(-17.3392585984 -136.423028576 0)
(-17.1200911234 -139.07192454 0)
(-16.8957917126 -141.224363415 0)
(-16.6680660082 -142.872863042 0)
(-16.4381338489 -144.013471854 0)
(-16.2071153211 -144.645543377 0)
(-15.9760189134 -144.771497574 0)
(-15.7457454986 -144.396622803 0)
(-15.5171442215 -143.52897585 0)
(-15.291066067 -142.179365297 0)
(-15.0683970155 -140.361383194 0)
(-14.8500791982 -138.091471174 0)
(-14.6371281005 -135.389014008 0)
(-14.4306465566 -132.276455942 0)
(-14.2318321974 -128.77942406 0)
(-14.0419745612 -124.926837845 0)
(-13.8624379567 -120.750972438 0)
(-13.694627021 -116.287439435 0)
(-13.5399323529 -111.575041227 0)
(-13.3996555661 -106.655457809 0)
(-13.2749146994 -101.572726378 0)
(-13.1665335795 -96.3724879094 0)
(-13.0749209104 -91.100987367 0)
(-12.9999458308 -85.8038368441 0)
(-12.9408200027 -80.5245702304 0)
(-12.8959878347 -75.3030364009 0)
(-12.8630444015 -70.1737015885 0)
(-12.8386433153 -65.1639076651 0)
(-12.8184923407 -60.2922228634 0)
(-12.7971708813 -55.5667816635 0)
(-12.7684353124 -50.9841440647 0)
(-12.7242815894 -46.5275379631 0)
(-12.6572779577 -42.167898171 0)
(-12.5546179226 -37.8594455175 0)
(-12.4143258129 -33.5537775878 0)
(-12.2042391187 -29.1702777473 0)
(-11.9696291115 -24.6886145258 0)
(-11.5231803612 -19.8775029122 0)
(-11.1915870649 -14.9326289831 0)
(-9.05846599439 -7.96638714174 0)
(-7.26152210874 -1.13832584904 0)
(-2.56183225078 -2.86262099574 0)
(-2.27309015996 -5.05776561509 0)
(-4.56213859186 -8.72306119249 0)
(-6.5966496389 -7.14235395809 0)
(-9.09814142307 -4.81903929697 0)
(-11.4050493091 -2.01847461454 0)
(-13.2474315755 0.467682414102 0)
(-14.9019655265 2.73474493845 0)
(-16.4686721897 4.96414169282 0)
(-17.955395672 7.2238595409 0)
(-19.3517327278 9.53609683922 0)
(-20.6504628734 11.9095379049 0)
(-21.8503979119 14.3475505433 0)
(-22.9544401444 16.849988907 0)
(-23.9674154965 19.414644045 0)
(-24.8948809148 22.0384282636 0)
(-25.7426202435 24.718023451 0)
(-26.5163829048 27.4501782117 0)
(-27.2216942454 30.23188197 0)
(-27.8637251092 33.0605012008 0)
(-28.4472262578 35.9338956369 0)
(-28.9765109807 38.8505108482 0)
(-29.4554654896 41.8094552261 0)
(-29.8875720398 44.8105621971 0)
(-30.2759378178 47.8544454762 0)
(-30.623326279 50.9425466021 0)
(-30.93218697 54.0771826725 0)
(-31.204689433 57.2615921006 0)
(-31.4427413799 60.4999938405 0)
(-31.6480476194 63.7976358957 0)
(-31.8220398935 67.1609115704 0)
(-31.9661310619 70.5973108258 0)
(-32.0810441245 74.1158063978 0)
(-32.1699311227 77.7255209631 0)
(-32.2381891349 81.4374222935 0)
(-32.326697177 85.2510261767 0)
(-32.4408530831 88.9131118218 0)
(-32.5467164122 92.2709852417 0)
(-32.6088394559 95.1688117967 0)
(-32.6186530653 97.6077372618 0)
(-32.5758126743 99.5871823684 0)
(-32.4799033533 101.107441904 0)
(-32.329517556 102.17124774 0)
(-32.1229712606 102.783926321 0)
(-31.8586149282 102.953283063 0)
(-31.5348141561 102.689573526 0)
(-31.1499071431 102.005505289 0)
(-30.7022242406 100.916214595 0)
(-30.1901405645 99.4392226028 0)
(-29.6121359933 97.594400516 0)
(-28.9668599895 95.4039514469 0)
(-28.2532084593 92.8924098561 0)
(-27.4704181222 90.0866412339 0)
(-26.6181814492 87.0158254592 0)
(-25.6967830913 83.7113916645 0)
(-24.7072563702 80.2068759503 0)
(-23.6515551313 76.5376631255 0)
(-22.5327315317 72.7405856502 0)
(-21.3551060086 68.8533533744 0)
(-20.1244111058 64.9138098191 0)
(-18.8478885736 60.9590199121 0)
(-17.5343187409 57.0242210739 0)
(-16.1939635887 53.1416798299 0)
(-14.8384135608 49.3395174949 0)
(-13.4803304936 45.6405714285 0)
(-12.1331098878 42.0613634591 0)
(-10.8104439542 38.6112450886 0)
(-9.52591478102 35.2917690615 0)
(-8.29237248836 32.0964239495 0)
(-7.12186665929 29.0106448536 0)
(-6.02414532835 26.0127917047 0)
(-5.00915223842 23.0747849855 0)
(-4.07877072817 20.1673607917 0)
(-3.24848383841 17.2572892083 0)
(-2.48599915054 14.3410072916 0)
(-1.88717121504 11.3904334676 0)
(-1.16908999483 8.61928669185 0)
(-1.25857153443 5.88649607817 0)
(1.26691266524 6.14931998838 0)
(-3.46188532913 7.09901966309 0)
(-6.39495338632 -6.79568768146 0)
(-5.20478884437 -8.7820535996 0)
(-6.45479738731 -5.37725166648 -1.69484253099e-28)
(-6.33494799926 -3.8280466029 1.06798552946e-28)
(-6.64671439517 -2.96588377299 1.1594837605e-28)
(-7.33362901367 -2.86855141646 -9.49485245275e-29)
(-8.23145614944 -3.13113044493 1.49330911186e-28)
(-9.24943880807 -3.50677115204 -1.32844177094e-28)
(-10.2932408161 -3.92506517815 0)
(-11.2930973407 -4.38787882385 0)
(-12.2137870584 -4.91193302539 0)
(-13.0426168005 -5.51083223956 0)
(-13.7777848366 -6.19368365538 0)
(-14.4228021055 -6.96653875401 0)
(-14.9838429369 -7.83307862423 0)
(-15.4681309489 -8.79495376064 0)
(-15.8829774397 -9.85221969145 0)
(-16.2353013253 -11.0038325376 0)
(-16.5314202494 -12.2480854399 0)
(-16.7769725415 -13.5829508168 0)
(-16.976908673 -15.006347426 0)
(-17.1355245576 -16.5163556614 0)
(-17.2565172131 -18.1113941907 0)
(-17.3430491904 -19.7903672889 0)
(-17.397813748 -21.5527891808 0)
(-17.4230977056 -23.3988925688 0)
(-17.42083899 -25.3297297509 0)
(-17.3926824448 -27.3472640762 0)
(-17.3400196948 -29.4544880449 0)
(-17.2640536976 -31.6554883869 -2.6204853815e-27)
(-17.1657600039 -33.9557280337 2.61837779897e-27)
(-17.0460815473 -36.3618127597 0)
(-16.9050267487 -38.882907278 0)
(-16.7416301977 -41.5276707686 0)
(-16.5427058175 -44.3143522226 0)
(-16.290646027 -47.1387444566 0)
(-16.0303711406 -49.6285528806 0)
(-15.7957537127 -51.7354853343 0)
(-15.5948921143 -53.4619824351 0)
(-15.4231038526 -54.8051258152 0)
(-15.2774546887 -55.767189462 0)
(-15.1579289295 -56.3558012032 0)
(-15.0652548085 -56.5821759005 0)
(-15.0000236099 -56.4604160117 0)
(-14.9625995573 -56.0073045316 0)
(-14.9530642318 -55.242048529 0)
(-14.9710803372 -54.1859342777 0)
(-15.0157532893 -52.8619896524 0)
(-15.0855216014 -51.2946966173 0)
(-15.1780646399 -49.5097531717 0)
(-15.2902172316 -47.5338731844 0)
(-15.4178907786 -45.3946113442 0)
(-15.5560059668 -43.1201949658 0)
(-15.6984435211 -40.7393377053 0)
(-15.8380213496 -38.2810061451 0)
(-15.9665088084 -35.7741111025 0)
(-16.0746908879 -33.2471019649 0)
(-16.1524958652 -30.7274542645 0)
(-16.1891981616 -28.2410568436 0)
(-16.1737038929 -25.8115236413 0)
(-16.0949184152 -23.4594719383 0)
(-15.9421856385 -21.2018232637 0)
(-15.7057749902 -19.051189867 0)
(-15.3773846309 -17.0154105238 0)
(-14.9506102431 -15.09729041 0)
(-14.4213537394 -13.2945957019 0)
(-13.7880748754 -11.6003206523 0)
(-13.0519995805 -10.0032986669 0)
(-12.2168819739 -8.48911611754 0)
(-11.2893583773 -7.04168497763 0)
(-10.2770468129 -5.64481463412 0)
(-9.19214897587 -4.28635283421 0)
(-8.03897073027 -2.9586087891 0)
(-6.84512617566 -1.67418089272 0)
(-5.5682400652 -0.441297008189 0)
(-4.3666420369 0.644277999134 0)
(-2.8139925168 1.7082921405 0)
(-2.45394553613 2.33740590886 0)
(2.26753721277 5.62160200308 0)
(-4.98102641664 7.52605251173 0)
(-6.24839582897 -10.9812646699 0)
(-8.1187103451 -4.19039438486 0)
(-5.62933168833 -2.99686507172 0)
(-4.49686618305 -3.95965016117 0)
(-5.28128688254 -4.48466918334 0)
(-6.55567669402 -4.64056994043 0)
(-7.87671894205 -4.5735740015 0)
(-9.17631321267 -4.31652286808 0)
(-10.399236081 -3.91701323158 0)
(-11.5106354433 -3.42954209401 0)
(-12.5079273631 -2.89188480034 0)
(-13.4026606236 -2.32427611551 0)
(-14.2080255149 -1.73584413313 0)
(-14.9359683787 -1.12929450062 0)
(-15.5970652438 -0.503530703335 0)
(-16.2003947079 0.144730206857 0)
(-16.7534516759 0.819865984157 0)
(-17.2622866194 1.52663601226 0)
(-17.7317609931 2.26976192341 0)
(-18.1657940489 3.05371845485 0)
(-18.5675644466 3.8826621323 0)
(-18.9396726617 4.76044592135 0)
(-19.2842732587 5.69068619631 0)
(-19.6031810217 6.67686134947 0)
(-19.897955289 7.72242896705 0)
(-20.1699640493 8.83095338105 0)
(-20.4204383918 10.0062406288 0)
(-20.6504995917 11.2524758065 0)
(-20.8612183041 12.5743738395 0)
(-21.0535326027 13.9773189841 0)
(-21.2285076494 15.4675674513 0)
(-21.3865268659 17.0523394842 0)
(-21.5295873695 18.7403458965 0)
(-21.6559338174 20.5417328433 0)
(-21.7810760589 22.4714470894 0)
(-21.8840869714 24.2994661513 0)
(-21.9293128222 25.8468125902 0)
(-21.9181212286 27.107313927 0)
(-21.8587507361 28.0719766827 0)
(-21.7515553031 28.7414848346 0)
(-21.5949658572 29.1246472387 0)
(-21.3893641706 29.2353726197 0)
(-21.1364175576 29.0914788261 0)
(-20.8381228585 28.7140062408 0)
(-20.4966995353 28.1263962302 0)
(-20.1147683049 27.3536585212 5.10898020992e-27)
(-19.69545308 26.4216523277 -5.15656291055e-27)
(-19.242404975 25.3564812974 0)
(-18.7598064914 24.1839783522 0)
(-18.2523664099 22.9292732579 0)
(-17.725291876 21.6164405101 0)
(-17.1842270072 20.2682173151 0)
(-16.6351520698 18.9057744568 0)
(-16.0842381588 17.5485192299 0)
(-15.5376521745 16.2139120002 0)
(-15.0013087886 14.9172825702 0)
(-14.4805709119 13.6716426058 0)
(-13.9799072424 12.4875007868 3.3250120788e-27)
(-13.5025248773 11.3727004978 -3.40858854678e-27)
(-13.05000479 10.3323086791 0)
(-12.6219771293 9.36859042989 0)
(-12.2158792037 8.48110094875 0)
(-11.8268374145 7.66692163221 0)
(-11.4477121254 6.92104992625 0)
(-11.0693166709 6.23694515573 0)
(-10.6808384803 5.60720773878 0)
(-10.2703724183 5.02439109142 0)
(-9.82572491111 4.48186678369 0)
(-9.33492150979 3.9748971079 0)
(-8.78779910677 3.50154389247 0)
(-8.17476684507 3.06440801593 0)
(-7.49336153136 2.67048519734 0)
(-6.73284453736 2.33672468791 0)
(-5.91983378649 2.07853412626 0)
(-4.98845131957 1.9451183119 0)
(-4.16119115296 1.90992526712 0)
(-2.82213786574 2.20530651238 0)
(-3.13210469553 2.37498082892 0)
(2.77649522866 5.7505804003 0)
(-6.80489777575 7.14160224585 0)
(13.2084202689 -20.8683827547 0)
(-4.56803272893 -3.96747930537 0)
(-2.33646694337 -3.98595289027 0)
(-2.79565102858 -5.4861638147 0)
(-5.00564851109 -5.93239312548 0)
(-6.80822580821 -5.93936694263 0)
(-8.19185819128 -5.74246326107 0)
(-9.3742611061 -5.39994883061 0)
(-10.3954878122 -4.98490142456 0)
(-11.2677849232 -4.56087581384 0)
(-12.0200687636 -4.16459332504 0)
(-12.6806784778 -3.81373806679 0)
(-13.2691673592 -3.5159381025 0)
(-13.7983748289 -3.2735728662 0)
(-14.2772076852 -3.08633172363 0)
(-14.7119533895 -2.95274744099 0)
(-15.1069624006 -2.87107367353 0)
(-15.4652150918 -2.83973040253 0)
(-15.7887927989 -2.85750336975 0)
(-16.0792080992 -2.92361664893 0)
(-16.3376130655 -3.03774275696 0)
(-16.5649281754 -3.19998806612 0)
(-16.7619228855 -3.41087448337 0)
(-16.929265485 -3.67132999706 0)
(-17.0675519213 -3.9826925506 0)
(-17.1773226756 -4.34673128499 0)
(-17.2590678873 -4.76568246193 0)
(-17.313236963 -5.2423097601 0)
(-17.3402168797 -5.77996365439 0)
(-17.3403825935 -6.38271438723 0)
(-17.3139332279 -7.05533651395 -3.69394997592e-27)
(-17.2613034205 -7.80376450028 3.70793296908e-27)
(-17.1818721156 -8.63416627273 0)
(-17.0769936982 -9.55608281145 0)
(-16.9408751884 -10.5675643503 0)
(-16.7985517433 -11.4474926214 0)
(-16.6664731683 -12.1427948838 0)
(-16.5475794971 -12.6380035978 0)
(-16.4433590494 -12.9319283224 0)
(-16.3527911679 -13.0311374785 0)
(-16.2731083033 -12.9462080227 0)
(-16.2016570723 -12.6917299033 0)
(-16.1360742891 -12.2859808929 0)
(-16.0737531239 -11.7497758905 0)
(-16.011633367 -11.1052445048 0)
(-15.9462735538 -10.3748233087 0)
(-15.8739466299 -9.58042572505 0)
(-15.7907036247 -8.74275449049 0)
(-15.6924495013 -7.88076732903 0)
(-15.5750560779 -7.01130290916 0)
(-15.4345086967 -6.14885761622 0)
(-15.2670773742 -5.30549150285 0)
(-15.0695053042 -4.49084049466 0)
(-14.8392064471 -3.71221002636 0)
(-14.5744592609 -2.97472957497 0)
(-14.2745781211 -2.28154979079 0)
(-13.9400388523 -1.63407194574 0)
(-13.5725316968 -1.03220294969 0)
(-13.1749147052 -0.474635303922 0)
(-12.7510457942 0.0408493075247 0)
(-12.3054816679 0.517055136584 0)
(-11.8430496399 0.957035526446 0)
(-11.3683159165 1.36375730174 0)
(-10.8850019629 1.73978612118 0)
(-10.3953993315 2.08701509505 0)
(-9.89989123856 2.40644636784 0)
(-9.39655947926 2.69805747758 0)
(-8.88118982659 2.96069871854 0)
(-8.34705101031 3.19215985551 0)
(-7.78633794354 3.38904391455 0)
(-7.18826698785 3.54760920252 0)
(-6.54792591981 3.66264139747 0)
(-5.84687269206 3.73367217929 0)
(-5.11573428922 3.75347715991 0)
(-4.26409595007 3.75350182219 0)
(-3.59129795825 3.68743546674 0)
(-2.27756811397 3.82014159199 0)
(-3.20317557648 3.63580255079 0)
(3.89741562915 6.83577086598 0)
(-8.63224429294 7.30212098447 0)
(24.391095861 -19.8787301909 0)
(-7.45051739734 -3.08239277561 0)
(-2.02095423046 -6.16381524976 0)
(-3.29858093823 -7.70094227933 0)
(-5.99644014196 -7.76560196507 0)
(-7.62366280412 -7.4603414031 0)
(-8.7009646035 -6.97074797673 0)
(-9.58969962061 -6.37155680359 0)
(-10.3429153007 -5.74921676417 0)
(-10.9845222322 -5.15443514496 0)
(-11.5508872057 -4.60553904311 0)
(-12.0692896344 -4.10583102435 0)
(-12.5542623279 -3.65246320184 0)
(-13.0129874846 -3.2398116081 0)
(-13.4491141209 -2.86121183923 0)
(-13.8643271501 -2.5099728616 0)
(-14.2591100541 -2.17983807524 0)
(-14.6332900651 -1.86511563503 0)
(-14.9864220026 -1.56066778955 0)
(-15.3180143534 -1.26185008077 0)
(-15.6276428859 -0.964433476134 0)
(-15.9150007822 -0.664522045429 0)
(-16.1799165456 -0.358473319532 0)
(-16.4223557573 -0.0428226693679 0)
(-16.6424152533 0.285788700355 0)
(-16.8403148732 0.6306860566 0)
(-17.0163891235 0.995234429932 0)
(-17.1710818058 1.38292218475 0)
(-17.3049380074 1.79744270083 0)
(-17.4186137985 2.24282416224 0)
(-17.5128463907 2.72348448637 0)
(-17.5885977709 3.24459111722 0)
(-17.646820306 3.81167000707 0)
(-17.6895678135 4.43253310354 0)
(-17.7152614666 5.08917405525 0)
(-17.7069827299 5.64606504191 0)
(-17.6607044401 6.09056186804 0)
(-17.5774064527 6.41538752177 0)
(-17.4594458543 6.61889030862 0)
(-17.3092431088 6.70497462848 0)
(-17.128935465 6.68320389403 0)
(-16.9209639192 6.5673267394 0)
(-16.6883594944 6.37347518804 0)
(-16.4345086122 6.11884958546 0)
(-16.1628770048 5.82072785195 0)
(-15.8768706899 5.49560115143 0)
(-15.5797390924 5.15845609376 0)
(-15.2744526388 4.82226350103 0)
(-14.9635666161 4.49768251758 0)
(-14.6490979233 4.19295450548 0)
(-14.3324270438 3.91395611943 0)
(-14.0142310278 3.66437967929 0)
(-13.6944552115 3.44600940325 0)
(-13.3723330956 3.25906093239 0)
(-13.0464624567 3.10255559349 0)
(-12.714941718 2.97470329612 0)
(-12.3755645501 2.87327324301 0)
(-12.026062034 2.79593334223 0)
(-11.6643710775 2.74054278542 0)
(-11.2888965881 2.70538250091 0)
(-10.8987248334 2.68931331387 0)
(-10.4937429459 2.69184979747 0)
(-10.0746192331 2.7131502518 0)
(-9.64262406377 2.75391911418 0)
(-9.19926859867 2.81524119241 0)
(-8.74583610154 2.89833905253 0)
(-8.28273706014 3.00431616601 0)
(-7.80909584831 3.13378467707 0)
(-7.32180904632 3.28656493441 0)
(-6.81652507089 3.46096679442 0)
(-6.28425400364 3.65384741592 0)
(-5.72163525722 3.85791021876 0)
(-5.10515395478 4.06659293687 0)
(-4.47079691185 4.25824254525 0)
(-3.69547823775 4.44469812371 0)
(-3.15590621957 4.53872276704 0)
(-1.78915073546 4.79669890513 0)
(-3.30689820744 4.57339046404 0)
(5.2559252359 7.94106429508 0)
(-10.7152908384 7.65165671057 0)
(35.5216937278 -19.669128887 0)
(-12.647120993 -4.10708179804 0)
(-2.22982750697 -9.00444642397 0)
(-4.19508067262 -9.68938709991 0)
(-6.82562038301 -9.14250086083 0)
(-7.97482243585 -8.47706635591 0)
(-8.6742178712 -7.7322365848 0)
(-9.28079423965 -6.97388393898 0)
(-9.81170421004 -6.27086471483 0)
(-10.2850053498 -5.64494736809 0)
(-10.7301435392 -5.09379239236 1.93183633808e-27)
(-11.1639175232 -4.60946129061 -1.90525727779e-27)
(-11.5915722821 -4.1833066684 0)
(-12.0132179316 -3.80696076503 0)
(-12.4270405518 -3.47296025655 0)
(-12.8304042679 -3.17508444278 0)
(-13.2203739482 -2.90835490387 0)
(-13.5940711691 -2.66887480034 0)
(-13.9488876899 -2.45364677719 0)
(-14.2825773 -2.26041589314 0)
(-14.5932718661 -2.08754171715 0)
(-14.8794601357 -1.9338976546 0)
(-15.1399513964 -1.79879479072 0)
(-15.3738350118 -1.68192792263 0)
(-15.5804410705 -1.58333983753 0)
(-15.7593049005 -1.50340140116 0)
(-15.9101362553 -1.44280419595 0)
(-16.0327932435 -1.40256644755 0)
(-16.127262235 -1.38404690684 0)
(-16.1936344982 -1.38897993208 0)
(-16.2321135373 -1.41950052008 0)
(-16.2429148113 -1.47825240592 4.17473284184e-27)
(-16.2264939487 -1.56838886711 -4.21150138295e-27)
(-16.1828097872 -1.69400353782 0)
(-16.1155198422 -1.82838333502 0)
(-16.0365768749 -1.91122629492 0)
(-15.9484773501 -1.93397629757 0)
(-15.8520172463 -1.89286529883 0)
(-15.7477148812 -1.78910838195 0)
(-15.6354198633 -1.62814994019 0)
(-15.5140686653 -1.41823499778 0)
(-15.3820663482 -1.16922405761 0)
(-15.2377379781 -0.891754352136 0)
(-15.0794911583 -0.596433629905 0)
(-14.9058409581 -0.293067990474 0)
(-14.7154722477 0.00992340811132 0)
(-14.5073374277 0.305848731002 0)
(-14.2807344568 0.589866267222 0)
(-14.0353466775 0.858928989962 0)
(-13.7712500547 1.11158678674 0)
(-13.4888915428 1.34768504086 0)
(-13.1890379226 1.56800455447 0)
(-12.8726964651 1.77388635462 0)
(-12.5410137503 1.96688122134 0)
(-12.1951632813 2.14845555267 0)
(-11.8362361399 2.31977872154 0)
(-11.4651514968 2.4816072787 0)
(-11.0826049303 2.63427313862 0)
(-10.6890694328 2.77777231332 0)
(-10.2848577657 2.91193885505 0)
(-9.87023988508 3.03668389751 0)
(-9.44559627848 3.15226205318 0)
(-9.01156236029 3.25953446016 0)
(-8.56912441783 3.36017593981 0)
(-8.11958564281 3.45681391458 0)
(-7.66442983131 3.55301408563 0)
(-7.20489973961 3.65321117136 0)
(-6.74173451557 3.76236003424 0)
(-6.27405802662 3.88560157492 0)
(-5.80041101703 4.02736317069 0)
(-5.31413476599 4.19118713572 0)
(-4.81544891073 4.37625971776 0)
(-4.27824446525 4.58201197857 0)
(-3.74829024669 4.7890376861 0)
(-3.06799964127 5.01120216934 0)
(-2.7013398392 5.14429925806 0)
(-1.29867850862 5.46196759177 0)
(-3.53158367915 5.18881911237 0)
(6.72417831842 8.8357216294 0)
(-13.0434209702 7.90641072758 0)
(47.0414385151 -19.1288160165 0)
(-18.9850144463 -5.99590486706 0)
(-1.79239104823 -12.0004890681 0)
(-4.76017692143 -11.4006768139 0)
(-7.0761268834 -10.264447722 0)
(-7.75579609272 -9.28705250993 0)
(-8.20325850275 -8.3439688502 0)
(-8.65291219286 -7.48173073646 0)
(-9.0752670541 -6.73328176646 0)
(-9.48187087717 -6.08871071204 0)
(-9.89257411048 -5.52861470501 0)
(-10.3139641259 -5.03655882647 0)
(-10.7443504035 -4.59924747286 0)
(-11.1794260516 -4.20573344803 0)
(-11.61427374 -3.84721365352 0)
(-12.0439547202 -3.51679793574 0)
(-12.4638264685 -3.20913858467 0)
(-12.8697488042 -2.92005471727 0)
(-13.2581746423 -2.64622672959 0)
(-13.6261557456 -2.38496503776 0)
(-13.9713028999 -2.13403779888 0)
(-14.2917273189 -1.8915432139 0)
(-14.5859780136 -1.65581587421 0)
(-14.8529826066 -1.42535752862 0)
(-15.0919949843 -1.19878475126 0)
(-15.3025516627 -0.974786195409 0)
(-15.4844351561 -0.752085346957 0)
(-15.6376493654 -0.529402967613 0)
(-15.7623897526 -0.305418718828 0)
(-15.8590552141 -0.0787262443742 0)
(-15.9281653115 0.152223688427 0)
(-15.9705632477 0.389169987301 0)
(-15.9868259406 0.634223673018 0)
(-15.9787180779 0.889650014492 0)
(-15.9440649075 1.13519442684 0)
(-15.8805242771 1.34846542813 0)
(-15.7880599815 1.52611734332 0)
(-15.6681717624 1.6679055465 0)
(-15.5230521609 1.77618139178 0)
(-15.3551005766 1.85518410764 0)
(-15.1666367924 1.91054856989 0)
(-14.9598716864 1.94874558049 0)
(-14.7369616061 1.97635937859 0)
(-14.4999529859 1.99943665027 0)
(-14.250644472 2.02306724449 3.78037236715e-27)
(-13.9904760841 2.05118294965 -3.80288616116e-27)
(-13.7204812619 2.08651943547 0)
(-13.4412818791 2.13070587402 0)
(-13.1531112412 2.18444948212 0)
(-12.855864992 2.24777150241 0)
(-12.5491793528 2.32025011033 0)
(-12.2325286692 2.4012337603 0)
(-11.9053299725 2.49000117555 0)
(-11.5670414403 2.5858557106 0)
(-11.2172426843 2.68815346827 0)
(-10.85568713 2.79627506995 0)
(-10.4823214599 2.90955982952 0)
(-10.0972746254 3.02722759267 0)
(-9.70082591857 3.14832008747 0)
(-9.29337286543 3.27168296167 0)
(-8.87541571162 3.39602794423 0)
(-8.44758217059 3.52006763351 0)
(-8.01068185881 3.64274863359 0)
(-7.56579631237 3.76351655248 0)
(-7.11431667688 3.88265146376 0)
(-6.65798112031 4.00145563157 0)
(-6.19862720763 4.12251854756 0)
(-5.7381611623 4.24953590497 0)
(-5.27748151129 4.38715550377 0)
(-4.81783804251 4.54004830479 0)
(-4.35522786723 4.71273194829 0)
(-3.89497751873 4.90551506362 0)
(-3.41065576112 5.11911939401 0)
(-2.96345749635 5.33330753652 0)
(-2.36277497246 5.56362840961 0)
(-2.17802873118 5.69230530377 0)
(-0.732141491344 6.01823977238 0)
(-3.82482616848 5.63372578154 0)
(8.35812102542 9.56458405945 0)
(-15.5575091143 8.04899414388 0)
(59.522522557 -18.7662369969 0)
(-26.3977322766 -8.67042795201 0)
(-0.570590218954 -14.8140116392 0)
(-5.08647547045 -12.6393485912 0)
(-6.89742686156 -11.0447228784 0)
(-7.20812879134 -9.83876130253 0)
(-7.53478097759 -8.77265224011 0)
(-7.92072283513 -7.86998120445 0)
(-8.3066072953 -7.12112276598 0)
(-8.7023712922 -6.49048628146 0)
(-9.1193936707 -5.94804553017 0)
(-9.55690301369 -5.47251987768 0)
(-10.0091958713 -5.04814637177 0)
(-10.469678995 -4.66302210304 0)
(-10.9318372375 -4.3083535713 0)
(-11.3895346807 -3.97779169794 0)
(-11.8372343703 -3.66679922566 0)
(-12.2701196291 -3.37213606198 0)
(-12.6841155476 -3.09147808217 0)
(-13.0758492713 -2.82314579826 0)
(-13.4425818885 -2.56591578604 0)
(-13.7821310021 -2.31889359709 0)
(-14.0927945287 -2.08143122268 0)
(-14.3732812318 -1.85307590867 0)
(-14.622650733 -1.63354019239 0)
(-14.8402630161 -1.42268517891 0)
(-15.0257378839 -1.22051372248 0)
(-15.1789215256 -1.02716609376 0)
(-15.2998624149 -0.842927617409 0)
(-15.3887903102 -0.668221132729 0)
(-15.4461058473 -0.503648100728 0)
(-15.472377825 -0.349923149021 0)
(-15.4683711384 -0.208079479531 4.72754642331e-27)
(-15.4353045973 -0.0789679854304 -4.79819043335e-27)
(-15.3753120454 0.0515080636906 0)
(-15.2914518772 0.190684396833 0)
(-15.1847972192 0.340161947242 0)
(-15.0562815792 0.499838100655 0)
(-14.9068086944 0.668003375093 0)
(-14.7371507108 0.84181179404 0)
(-14.5479307857 1.01793748331 0)
(-14.3397204731 1.19319126343 0)
(-14.1131789834 1.36492420224 0)
(-13.8691331241 1.53123236261 0)
(-13.6085749239 1.69103382074 0)
(-13.332619006 1.84404237274 0)
(-13.0424497094 1.99064529316 0)
(-12.7392587212 2.13171498436 0)
(-12.42417191 2.2683978181 0)
(-12.0981756545 2.40191714318 0)
(-11.7620575678 2.53341366624 0)
(-11.4163732688 2.66383505023 0)
(-11.0614455128 2.79387707079 0)
(-10.6973966402 2.92397162001 0)
(-10.3242097441 3.05430927322 0)
(-9.94180787018 3.18488310553 0)
(-9.55013602545 3.31553749211 0)
(-9.14923132582 3.44600809088 0)
(-8.739265009 3.57595691678 0)
(-8.32056168581 3.70497747296 0)
(-7.89359015032 3.83263644063 0)
(-7.45896557488 3.95850443817 0)
(-7.01744788168 4.0822975158 0)
(-6.56999998043 4.20400495703 0)
(-6.11781842135 4.32424744826 0)
(-5.66244520197 4.44436280079 0)
(-5.20564327974 4.56697253637 0)
(-4.74952777523 4.69572276057 0)
(-4.29567500059 4.83545182414 0)
(-3.846971297 4.99104063203 0)
(-3.40107931235 5.16741461033 0)
(-2.96821292963 5.36485483283 0)
(-2.52171223444 5.58344521784 0)
(-2.14141179916 5.80030979897 0)
(-1.60332752693 6.0306039228 0)
(-1.59828663828 6.14140110379 0)
(-0.0812717838749 6.45565758201 0)
(-4.17576762366 5.93067949446 0)
(10.2357299562 10.1680476097 0)
(-18.2635702439 8.10534747001 0)
(72.9530538978 -18.5223710182 0)
(-34.8149263226 -11.8015271177 0)
(1.58246458345 -17.1566135616 0)
(-5.27038938416 -13.416843767 0)
(-6.41706529776 -11.6048690259 0)
(-6.51727491394 -10.2657826301 0)
(-6.82834198117 -9.14527788125 0)
(-7.20734942364 -8.24566534065 0)
(-7.59706439093 -7.51870605968 0)
(-8.01010203541 -6.91289375483 0)
(-8.45157630109 -6.39282988131 0)
(-8.91652950897 -5.93441732346 0)
(-9.39748269141 -5.52035705537 0)
(-9.8868732881 -5.13826831479 0)
(-10.3774745914 -4.77954671356 0)
(-10.8626317943 -4.43836309358 0)
(-11.3364524847 -4.11083310702 0)
(-11.7938819872 -3.79439152839 0)
(-12.2306868016 -3.48734446415 0)
(-12.6433904616 -3.18855891236 0)
(-13.0291902788 -2.89725489717 0)
(-13.3858701814 -2.61287175945 0)
(-13.7117183126 -2.33498609332 0)
(-14.0054536698 -2.06326354936 0)
(-14.266164059 -1.79743195484 0)
(-14.4932541701 -1.53726548586 0)
(-14.6864051489 -1.28257635037 0)
(-14.8455401529 -1.03320337758 0)
(-14.9708018835 -0.789012223861 0)
(-15.0625330361 -0.549863437938 0)
(-15.121259366 -0.315652381543 0)
(-15.1477339132 -0.086162259995 0)
(-15.1427631767 0.138611571616 0)
(-15.1077529733 0.359169525776 0)
(-15.0417376174 0.568469697659 0)
(-14.9457158598 0.764823089083 0)
(-14.820874138 0.948227515152 0)
(-14.6688123211 1.11961753371 0)
(-14.491360471 1.28051733766 0)
(-14.2904274971 1.43272127278 0)
(-14.0678797771 1.57805155481 0)
(-13.8254796134 1.71818705987 0)
(-13.5648765254 1.85454078636 0)
(-13.2876107502 1.98819760145 0)
(-12.9951049728 2.11993393307 0)
(-12.6886536454 2.25030430179 0)
(-12.369422664 2.37975131525 0)
(-12.0384561172 2.50869999815 0)
(-11.6966800997 2.63761515644 0)
(-11.3448989046 2.76701394442 0)
(-10.9837855343 2.89743566851 0)
(-10.6138714784 3.02937860171 0)
(-10.2355423691 3.16322007749 0)
(-9.84904580924 3.29914115862 0)
(-9.45451734721 3.43707026253 0)
(-9.05202560742 3.57666365087 0)
(-8.64163217208 3.71732461703 0)
(-8.22346050228 3.85825016719 0)
(-7.79774813886 3.99853238413 0)
(-7.36489595304 4.13720098524 0)
(-6.92546847928 4.2733669849 0)
(-6.48020612317 4.40624223649 0)
(-6.03000172322 4.53535092389 0)
(-5.57591123967 4.66048876344 0)
(-5.11917145472 4.78228845497 0)
(-4.66125302771 4.901922503 0)
(-4.20391992053 5.02214360782 0)
(-3.74923456245 5.14658714367 0)
(-3.29901321277 5.28040801517 0)
(-2.857288862 5.4284943748 0)
(-2.42259408872 5.59629558283 0)
(-2.00986376473 5.78398581096 0)
(-1.59254510905 5.9897326488 0)
(-1.27162057484 6.18739739971 0)
(-0.786768509297 6.39220865155 0)
(-0.963193964028 6.46414215007 0)
(0.645535735962 6.72814544975 0)
(-4.6124096364 6.07947732379 0)
(12.466979747 10.6497249893 0)
(-21.1845066438 8.04914179342 0)
(87.1652605211 -18.4569722612 0)
(-44.1318301547 -15.211588253 0)
(4.69970126855 -18.9262970177 0)
(-5.4964032023 -13.8443141698 0)
(-5.77686236204 -12.0489180446 0)
(-5.83007656864 -10.6298061984 0)
(-6.17542732515 -9.49769330433 0)
(-6.56552613372 -8.62346540132 0)
(-6.97196555808 -7.92830872468 0)
(-7.40897536426 -7.35284868186 0)
(-7.87678420197 -6.85874434932 0)
(-8.36818408427 -6.41983096164 0)
(-8.87484758289 -6.01780933216 0)
(-9.3886556602 -5.64024238694 0)
(-9.90196555231 -5.27903219317 0)
(-10.4078633694 -4.92913146333 0)
(-10.9003253074 -4.58754597111 0)
(-11.3742491885 -4.25261174087 0)
(-11.8254046729 -3.92349106003 0)
(-12.250347303 -3.59983429078 0)
(-12.6463211363 -3.28156381347 0)
(-13.0111628095 -2.96874445687 0)
(-13.3432140359 -2.66151204531 0)
(-13.641245298 -2.3600389983 0)
(-13.9043925308 -2.0645219288 0)
(-14.132103247 -1.77518050058 0)
(-14.3240976625 -1.49226338917 0)
(-14.4803264285 -1.21605030315 0)
(-14.6009643153 -0.946870229396 0)
(-14.6863403187 -0.685074514201 0)
(-14.737040026 -0.431130346606 0)
(-14.7536057286 -0.185396685436 0)
(-14.7372805988 0.0512281761566 0)
(-14.6884593524 0.279601357142 0)
(-14.6087806796 0.503002399991 0)
(-14.4991772146 0.721733357392 0)
(-14.3607331298 0.935672098016 0)
(-14.1946740321 1.14432073314 0)
(-14.0023326 1.34695584516 0)
(-13.7851312183 1.54281607147 0)
(-13.5445702978 1.73129220925 0)
(-13.2822218581 1.91207068689 0)
(-12.9997281332 2.0851936231 0)
(-12.6987897376 2.2510387909 0)
(-12.3811305846 2.41025518684 0)
(-12.0484455418 2.56368874246 0)
(-11.7023459106 2.71231453618 0)
(-11.3443123499 2.85717978241 0)
(-10.9756577781 2.99935717481 0)
(-10.5975013787 3.13990393801 0)
(-10.2107551365 3.27982002436 0)
(-9.81612356102 3.41999825922 0)
(-9.41411749985 3.5611627003 0)
(-9.00507975389 3.70380780488 0)
(-8.58922450844 3.84813522234 0)
(-8.16668585434 3.99401894802 0)
(-7.73757363642 4.14100443799 0)
(-7.30204189321 4.28831420068 0)
(-6.86032699005 4.43499690715 0)
(-6.41281702816 4.57989809388 0)
(-5.96005525096 4.72194157744 0)
(-5.50275989411 4.86002081622 0)