/*--------------------------------*- C++ -*----------------------------------*\
| =========                 |                                                 |
| \\      /  F ield         | OpenFOAM: The Open Source CFD Toolbox           |
|  \\    /   O peration     | Version:  v1806                                 |
|   \\  /    A nd           | Web:      www.OpenFOAM.com                      |
|    \\/     M anipulation  |                                                 |
\*---------------------------------------------------------------------------*/
FoamFile
{
    version     2.0;
    format      ascii;
    class       volVectorField;
    location    "700";
    object      Ua;
}
// * * * * * * * * * * * * * * * * * * * * * * * * * * * * * * * * * * * * * //

dimensions      [0 1 -1 0 0 0 0];


internalField   nonuniform List<vector> 
6400
(
(-0.823588424647 -0.360988790689 0)
(-1.64282896851 0.423946566041 0)
(-2.81580839428 1.58973983931 0)
(-3.99085541251 1.52540633961 0)
(-4.98854991245 0.909899307883 0)
(-6.38359429909 -3.25290121902 0)
(-7.27277598035 -4.98594054584 0)
(-7.98752558172 -6.84811230344 0)
(-8.58325259557 -8.89699637737 0)
(-9.06351572333 -11.0750539527 0)
(-9.44872128916 -13.3381762902 0)
(-9.76254843507 -15.6596360795 0)
(-10.0218726243 -18.0226166484 0)
(-10.2372539264 -20.4147828323 0)
(-10.4160484604 -22.8262607926 0)
(-10.5641824949 -25.2491604976 0)
(-10.6866326395 -27.6773498654 0)
(-10.7875030132 -30.1061774597 0)
(-10.8701201577 -32.532206793 0)
(-10.9371737771 -34.9530209339 0)
(-10.990847372 -37.3670874541 0)
(-11.0329184949 -39.7736596815 0)
(-11.0648357356 -42.1726985464 0)
(-11.0877817521 -44.5648107077 0)
(-11.1027262379 -46.9512014198 0)
(-11.1104699533 -49.3336409237 0)
(-11.1116812435 -51.7144436946 0)
(-11.1069252132 -54.0964610175 0)
(-11.0966920456 -56.4830861046 0)
(-11.0814145071 -58.8782846421 0)
(-11.0615244821 -61.2866441434 0)
(-11.0374550311 -63.7135660508 0)
(-11.0099691876 -66.1655110261 0)
(-10.9796433755 -68.6507916463 0)
(-10.9473162219 -71.1772929539 0)
(-10.9033484537 -73.7430629265 0)
(-10.8329090308 -76.2982408976 0)
(-10.7338247531 -78.7359738159 0)
(-10.616438581 -80.9119778916 0)
(-10.4886219157 -82.8053901655 0)
(-10.3553848058 -84.4047316339 0)
(-10.2189781328 -85.7027725494 0)
(-10.0804084221 -86.6947557467 0)
(-9.94038857992 -87.3779887662 0)
(-9.79957963073 -87.7517256214 0)
(-9.65858270752 -87.8170394009 0)
(-9.51794063774 -87.5767194514 0)
(-9.37817283079 -87.0352311124 0)
(-9.23980944897 -86.1987294305 0)
(-9.10341289149 -85.0751051637 0)
(-8.96959163241 -83.6740535392 0)
(-8.83901120613 -82.0071606593 0)
(-8.71240272085 -80.0880031112 0)
(-8.59056658645 -77.9322493722 0)
(-8.47436897179 -75.5577478618 0)
(-8.36472842469 -72.9845792155 0)
(-8.26259072092 -70.2350480333 0)
(-8.16889039687 -67.3335847563 0)
(-8.08449873582 -64.3065308476 0)
(-8.01015921198 -61.1817821275 0)
(-7.94641311598 -57.9882753132 0)
(-7.89351965701 -54.7553117959 0)
(-7.85137534122 -51.5117285949 0)
(-7.81943943175 -48.2849391207 0)
(-7.79666684528 -45.0998786607 0)
(-7.7814605504 -41.9779034229 0)
(-7.77162066681 -38.9356777348 0)
(-7.76434888042 -35.9841363161 0)
(-7.75614781565 -33.1274627845 0)
(-7.74302142442 -30.362408842 0)
(-7.71993266608 -27.6772902637 0)
(-7.68227198532 -25.0527407051 0)
(-7.62232517136 -22.4593189552 0)
(-7.53936941339 -19.8664396043 0)
(-7.41472244785 -17.2252128179 0)
(-7.27872801678 -14.5251344425 0)
(-7.01907921263 -11.6335537563 0)
(-6.85529831929 -8.68763638466 0)
(-5.5887769983 -4.56801643515 0)
(-4.62448642068 -0.345493214944 0)
(-1.16718296613 -1.612811433 0)
(-1.63038197055 -1.20557815725 0)
(-3.40493521371 -2.51038726674 0)
(-4.76735614758 -3.75767933082 0)
(-6.14187155475 -3.11611642479 0)
(-7.36260967702 -1.5416707866 0)
(-8.35980999994 -0.0765231092386 0)
(-9.33403698884 1.31064194441 0)
(-10.2996323002 2.68045791383 0)
(-11.2216650812 4.06525348516 0)
(-12.0824238888 5.48056503086 0)
(-12.8795697463 6.93297462353 0)
(-13.6150766083 8.42443741655 0)
(-14.2912774913 9.95463496061 0)
(-14.9108513389 11.5221953709 0)
(-15.4770884121 13.1252795974 0)
(-15.9936680859 14.7618778928 0)
(-16.4643129277 16.429988666 0)
(-16.8925739932 18.1277442765 0)
(-17.2817467361 19.8535010331 0)
(-17.6348483462 21.6059080157 0)
(-17.9546151385 23.3839607439 0)
(-18.243509515 25.1870472902 0)
(-18.5037339726 27.014986483 0)
(-18.7372498975 28.8680623935 0)
(-18.9457983361 30.7470542873 0)
(-19.1309196155 32.6532669578 0)
(-19.2939749914 34.5885599565 0)
(-19.4361586041 36.5553850688 0)
(-19.5585336714 38.556817561 0)
(-19.6619912349 40.5966277219 0)
(-19.7474030224 42.6792536437 0)
(-19.8152188726 44.8100365782 0)
(-19.8673406423 46.9944181282 0)
(-19.907013639 49.2389649155 0)
(-19.95882031 51.5432928832 0)
(-20.0257248211 53.7558204809 0)
(-20.0874088773 55.7874136172 0)
(-20.1219807269 57.541215418 0)
(-20.1241708646 59.0177247365 0)
(-20.0938103282 60.216322173 0)
(-20.0306968281 61.13684064 0)
(-19.9339997543 61.7805431238 0)
(-19.802700588 62.1502340914 0)
(-19.6357885012 62.2502012068 0)
(-19.4322488171 62.0862151813 0)
(-19.1910355584 61.6655521701 0)
(-18.9110830263 60.9970034624 0)
(-18.5913391479 60.0908731953 0)
(-18.2308045606 58.9589821959 0)
(-17.8285760124 57.6146807658 0)
(-17.3838986379 56.0728702268 0)
(-16.8962307465 54.3500199254 0)
(-16.3653228688 52.4641682255 0)
(-15.7913114802 50.4348850541 0)
(-15.1748259353 48.2831772891 0)
(-14.5171049833 46.0313114436 0)
(-13.8201159306 43.7025374304 0)
(-13.0866666488 41.320697487 0)
(-12.3204976518 38.9097202133 0)
(-11.5263400866 36.4930058712 0)
(-10.7099256687 34.0927276153 0)
(-9.87793663236 31.7290794249 0)
(-9.03789010745 29.4195152419 0)
(-8.19795376736 27.1780231841 0)
(-7.36670923774 25.0144813095 0)
(-6.5528551795 22.9341385435 0)
(-5.76493153028 20.9372532004 0)
(-5.01092277178 19.0189618531 0)
(-4.29820039402 17.1693355163 0)
(-3.63262019904 15.374048555 0)
(-3.02002984867 13.6149054103 0)
(-2.46137217844 11.8731480193 0)
(-1.9657317188 10.1282525802 0)
(-1.51375353987 8.37823986906 0)
(-1.16344348671 6.60819958841 0)
(-0.7466973366 4.94702377665 0)
(-0.826657303576 3.31684058538 0)
(0.672470651636 3.52757743991 0)
(-2.04112235099 4.53251598095 0)
(-2.85641846337 -3.57115365409 0)
(-4.38528059651 -4.22331303884 0)
(-4.80109006045 -3.11467012779 -1.38261004191e-29)
(-4.6990637737 -2.44261584502 8.7402891424e-30)
(-4.79714922558 -1.95593055272 3.90645406969e-29)
(-5.06678035688 -1.86110192209 -3.18418244181e-29)
(-5.49751353891 -1.95238730011 6.68530868278e-29)
(-6.0466374198 -2.11658099997 -5.92768631006e-29)
(-6.64239260413 -2.32332371462 0)
(-7.22509527636 -2.57103665423 0)
(-7.76444365957 -2.86367769819 0)
(-8.25036527324 -3.20594584526 0)
(-8.68136757516 -3.60227199688 0)
(-9.05909884961 -4.05599760609 0)
(-9.38673133802 -4.56901530597 0)
(-9.66829815415 -5.14194157391 0)
(-9.90813155472 -5.77447980917 0)
(-10.1104433546 -6.46573996303 0)
(-10.2791064505 -7.21447620636 0)
(-10.4175808816 -8.0192713239 0)
(-10.5289085775 -8.8786886768 0)
(-10.6157342101 -9.79139855931 0)
(-10.6803365529 -10.7562818005 0)
(-10.7246651576 -11.7725158031 0)
(-10.7503788323 -12.8396474232 0)
(-10.7588835632 -13.9576573155 0)
(-10.7513674067 -15.1270205345 0)
(-10.728834208 -16.3487619536 0)
(-10.6921277467 -17.6245280767 0)
(-10.6419705091 -18.9566272972 -1.50077311573e-27)
(-10.5789407353 -20.3482008174 1.49963733778e-27)
(-10.5035896093 -21.8030833979 0)
(-10.4158961281 -23.3266590005 0)
(-10.3152452565 -24.9240092434 0)
(-10.193600429 -26.6060046002 0)
(-10.0403774548 -28.3091459823 0)
(-9.88259999625 -29.8121142915 0)
(-9.74062791094 -31.0858443951 0)
(-9.61944906659 -32.1314932631 0)
(-9.51618897006 -32.9467813383 0)
(-9.42898119591 -33.5325223884 0)
(-9.35775119726 -33.8927727174 0)
(-9.30289037797 -34.0337587219 0)
(-9.2647109818 -33.9634625405 0)
(-9.24339264585 -33.6915203194 0)
(-9.23895101492 -33.2290923542 0)
(-9.25115407727 -32.5886780787 0)
(-9.27943524731 -31.7839332729 0)
(-9.32282303102 -30.8295161893 0)
(-9.37988047903 -29.7409601503 0)
(-9.44864782672 -28.53456468 0)
(-9.5265885113 -27.2272949226 0)
(-9.6105421036 -25.8366772548 0)
(-9.69668898077 -24.3806738077 0)
(-9.78053265137 -22.8775178872 0)
(-9.8569074924 -21.3454925744 0)
(-9.92002076397 -19.8026409124 0)
(-9.96353827766 -18.2664037846 0)
(-9.98072143724 -16.753193364 0)
(-9.96462026264 -15.277921722 0)
(-9.90832103112 -13.8535159348 0)
(-9.80524032369 -12.4904589643 0)
(-9.64944783874 -11.196399128 0)
(-9.43599507414 -9.97586921 0)
(-9.16121532858 -8.83014815865 0)
(-8.82297546692 -7.75729315556 0)
(-8.42081956729 -6.75234973973 0)
(-7.95607151766 -5.80778442216 0)
(-7.43165644712 -4.91410408433 0)
(-6.8522618445 -4.06088000598 0)
(-6.22315385225 -3.23782719256 0)
(-5.55225490715 -2.43746228186 0)
(-4.84265079647 -1.65564699374 0)
(-4.11110315266 -0.901358125706 0)
(-3.33250880764 -0.182447037848 0)
(-2.60150997509 0.439651366486 0)
(-1.66441531102 1.03448435892 0)
(-1.45312409143 1.3525648866 0)
(1.37354042682 3.29993417598 0)
(-2.89712610642 4.73961826719 0)
(-1.34762175187 -7.70784130417 0)
(-5.00139534858 -2.1530125507 0)
(-3.48304819026 -1.6300251242 0)
(-2.89129081585 -2.39484495813 0)
(-3.43850683262 -2.80721020792 0)
(-4.21223888049 -2.93723963314 0)
(-4.99674338404 -2.90372618891 0)
(-5.77347449406 -2.74244211937 0)
(-6.50847655339 -2.49201758156 0)
(-7.17603271545 -2.18917135449 0)
(-7.77219610254 -1.85710697156 0)
(-8.30396175398 -1.50794744647 0)
(-8.78020042998 -1.1474153623 0)
(-9.20887341136 -0.777341648599 0)
(-9.59678671717 -0.397021862861 0)
(-9.94969043023 -0.00426057014487 0)
(-10.2723399725 0.403838026406 0)
(-10.5685866297 0.830375387084 0)
(-10.8415150649 1.27839549361 0)
(-11.0935936711 1.75076214326 0)
(-11.3268092716 2.25011701241 0)
(-11.5427766804 2.77888818881 0)
(-11.7428251081 3.3393315072 0)
(-11.9280658545 3.93359233656 0)
(-12.0994458352 4.56377898444 0)
(-12.2577884024 5.23204226148 0)
(-12.4038278262 5.94065928624 0)
(-12.5382267742 6.69211862594 0)
(-12.661612826 7.48921337632 0)
(-12.7745294927 8.33512762779 0)
(-12.8775936416 9.23355969197 0)
(-12.9710068544 10.1887821673 0)
(-13.0559484299 11.2059500812 0)
(-13.1313269426 12.2911004071 0)
(-13.2065092971 13.4530796538 0)
(-13.2684079456 14.55269921 0)
(-13.295948674 15.485768451 0)
(-13.2900205047 16.2482798491 0)
(-13.255627432 16.8343212632 0)
(-13.1929195189 17.2437432404 0)
(-13.1008355762 17.4812908339 0)
(-12.9795104009 17.5547819842 0)
(-12.8298755353 17.4744099967 0)
(-12.6530638029 17.2523615749 0)
(-12.450339521 16.902347862 0)
(-12.223210114 16.4391222982 2.95443603837e-27)
(-11.9734919519 15.8780631089 -2.98182797043e-27)
(-11.703328225 15.2348201894 0)
(-11.4151950811 14.5250104978 0)
(-11.1119023977 13.7639566369 0)
(-10.7965802761 12.9664666178 0)
(-10.4726438139 12.1466482817 0)
(-10.1437317991 11.3177478145 0)
(-9.81361545865 10.4920002424 0)
(-9.48607359506 9.6804819244 0)
(-9.16473184857 8.89295901555 0)
(-8.85286742228 8.13773275464 0)
(-8.55318555993 7.42148982646 1.84553787638e-27)
(-8.2675806935 6.7491739477 -1.89242505986e-27)
(-7.99690182681 6.12389998996 0)
(-7.74074772544 5.54693467306 0)
(-7.49732103652 5.01776464867 0)
(-7.26336872055 4.53426697106 0)
(-7.03423318104 4.09298548122 0)
(-6.8040197715 3.6895080494 0)
(-6.56589374821 3.3189266166 0)
(-6.31244824809 2.9763686049 0)
(-6.03622901171 2.65755866824 0)
(-5.73007440474 2.35948780489 0)
(-5.38808351773 2.08096155284 0)
(-5.00488287315 1.82363690451 0)
(-4.57949410153 1.59191890559 0)
(-4.10610907584 1.39615038116 0)
(-3.60111204595 1.24547035068 0)
(-3.02548941621 1.16837537384 0)
(-2.51222374851 1.14601821819 0)
(-1.69261254289 1.31256120305 0)
(-1.87228975795 1.38555909045 0)
(1.69026281158 3.41385787083 0)
(-4.01058467324 4.50328854004 0)
(9.26680453501 -12.8153300912 0)
(-3.30229942268 -2.16175810691 0)
(-1.55727530864 -2.57381274568 0)
(-1.90043747956 -3.55297774549 0)
(-3.29502106265 -3.80807099106 0)
(-4.38366799996 -3.7815237205 0)
(-5.20426644639 -3.62420514845 0)
(-5.90242687522 -3.37848490449 0)
(-6.50287916925 -3.09343912288 0)
(-7.01228905836 -2.80878447094 0)
(-7.44805611382 -2.54606113967 0)
(-7.82781104466 -2.31493956396 0)
(-8.16407371776 -2.11927054027 0)
(-8.46514215209 -1.95995318188 0)
(-8.73667440529 -1.83632846537 0)
(-8.9825760293 -1.74706703575 0)
(-9.20551461527 -1.69072872881 0)
(-9.40730333461 -1.66605096916 0)
(-9.58919205633 -1.67206266129 0)
(-9.75207088995 -1.70811186306 0)
(-9.89660401947 -1.77385786213 0)
(-10.023314757 -1.86925199403 0)
(-10.1326378303 -1.99451807411 0)
(-10.2249504347 -2.15013930305 0)
(-10.3005894488 -2.3368543702 0)
(-10.3598610584 -2.55566540248 0)
(-10.4030431278 -2.80785588534 0)
(-10.430390023 -3.09502442228 0)
(-10.4421188749 -3.41911820501 0)
(-10.43843807 -3.78251265498 0)
(-10.419450252 -4.18799814502 -2.08386183987e-27)
(-10.385388906 -4.6390622369 2.09178571681e-27)
(-10.3358623573 -5.13930500097 0)
(-10.2715892182 -5.69440584158 0)
(-10.1892020375 -6.30210422892 0)
(-10.1039027435 -6.83096993741 0)
(-10.0252297302 -7.2505102396 0)
(-9.95489441274 -7.55109282283 0)
(-9.89384916051 -7.73166868407 0)
(-9.84150863255 -7.79580845316 0)
(-9.79619280036 -7.74942661882 0)
(-9.75628512564 -7.60083553398 0)
(-9.72035186439 -7.36060401181 0)
(-9.68681095547 -7.04089594833 0)
(-9.6537975319 -6.65475355253 0)
(-9.61920562488 -6.21550435625 0)
(-9.58074524682 -5.73626895172 0)
(-9.5359792542 -5.22954669178 0)
(-9.48236772165 -4.70688643291 0)
(-9.41733618902 -4.17864746643 0)
(-9.33836626324 -3.65384616102 0)
(-9.24310316839 -3.14007619543 0)
(-9.12947589057 -2.64349006987 0)
(-8.99582462661 -2.1688285976 0)
(-8.84102688607 -1.71948823291 0)
(-8.66460977548 -1.29761761319 0)
(-8.46683243436 -0.904239567417 0)
(-8.24872055259 -0.539396707241 0)
(-8.01203487007 -0.202321451252 0)
(-7.75915938538 0.108370488213 0)
(-7.49290242487 0.394465627123 0)
(-7.21621601929 0.657925652482 0)
(-6.93185165994 0.900659730534 0)
(-6.64198832951 1.12431254206 0)
(-6.3478690881 1.33008565084 0)
(-6.04951510764 1.51860117031 0)
(-5.74550800338 1.68982737579 0)
(-5.4330263168 1.84302932049 0)
(-5.1077616947 1.97683348124 0)
(-4.76483071957 2.089173337 0)
(-4.3977008881 2.17779796327 0)
(-4.00350038708 2.23962813292 0)
(-3.57149124179 2.27449675304 0)
(-3.1203636126 2.27818136866 0)
(-2.59638506788 2.26951928795 0)
(-2.17932427366 2.21938617232 0)
(-1.37619434175 2.28468892327 0)
(-1.93158152762 2.1462319673 0)
(2.35732909697 4.07383506129 0)
(-5.1306834035 4.5877105998 0)
(15.6162984894 -11.8254704716 0)
(-4.90354405452 -1.83451126834 0)
(-1.28009067204 -3.90704377541 0)
(-2.15574207802 -4.82299743198 0)
(-3.82677216995 -4.84203632746 0)
(-4.80504648428 -4.63790185022 0)
(-5.44344249089 -4.3167256042 0)
(-5.96440200957 -3.92821671812 0)
(-6.40026807622 -3.52841951011 0)
(-6.76676211149 -3.14933271057 0)
(-7.08700909194 -2.80209316793 0)
(-7.37835751066 -2.48826026158 0)
(-7.65025669758 -2.20557676289 0)
(-7.90748320129 -1.95014133559 0)
(-8.15243847562 -1.71746295036 0)
(-8.38616990214 -1.50307245234 0)
(-8.60891993251 -1.30281904389 0)
(-8.82050857473 -1.11296204301 0)
(-9.02058587098 -0.930161004665 0)
(-9.20877624281 -0.75142630539 0)
(-9.38475219039 -0.574059322945 0)
(-9.54826775973 -0.39559304754 0)
(-9.69916991006 -0.213736991679 0)
(-9.83739812432 -0.0263262961223 0)
(-9.96297861675 0.168725555988 0)
(-10.0760170705 0.373472984453 0)
(-10.1766914213 0.589984117832 0)
(-10.265247106 0.820392076291 0)
(-10.3419899241 1.06694465621 0)
(-10.4072932128 1.33208255045 0)
(-10.4615719426 1.61847338793 0)
(-10.5053895286 1.92922720745 0)
(-10.5392570201 2.26767250414 0)
(-10.5644789288 2.63849998229 0)
(-10.5798056319 3.02967038842 0)
(-10.5753948298 3.36240608329 0)
(-10.5488737832 3.62900519561 0)
(-10.5007755501 3.82497411861 0)
(-10.4324676672 3.94908230816 0)
(-10.3453558703 4.00335583609 0)
(-10.2406554671 3.99321004807 0)
(-10.1197576575 3.92660281776 0)
(-9.98441801208 3.81296922091 0)
(-9.83661778261 3.66244749398 0)
(-9.67839532774 3.48529733632 0)
(-9.51176228929 3.29138521012 0)
(-9.33864619223 3.08974834553 0)
(-9.16081618008 2.88827608013 0)
(-8.97979860888 2.69351617263 0)
(-8.79679906954 2.51059243658 0)
(-8.61263870329 2.34321707612 0)
(-8.42770864942 2.19378036588 0)
(-8.24194791826 2.06350044464 0)
(-8.05485127492 1.95261506326 0)
(-7.86551302976 1.86059911926 0)
(-7.6727100553 1.78639291452 0)
(-7.47502329327 1.72862848977 0)
(-7.27099107638 1.68584177356 0)
(-7.05928020718 1.65665980216 0)
(-6.83885297554 1.63995147053 0)
(-6.60910171361 1.63493271892 0)
(-6.3699207578 1.64121782285 0)
(-6.1216875882 1.65881325199 0)
(-5.8651399291 1.68805552129 0)
(-5.60114003968 1.7294998088 0)
(-5.33037206466 1.78376715398 0)
(-5.05294222998 1.85137608099 0)
(-4.76812852873 1.93251216047 0)
(-4.4738318627 2.02685493928 0)
(-4.16718742558 2.1331472404 0)
(-3.84260169269 2.24921373344 0)
(-3.49793034649 2.37035409465 0)
(-3.11916493024 2.4923205934 0)
(-2.72811033179 2.60178912226 0)
(-2.25124774344 2.70563437146 0)
(-1.91572989688 2.75017612405 0)
(-1.08017862563 2.88824964353 0)
(-1.99860136116 2.72130366196 0)
(3.17285240017 4.74002914953 0)
(-6.39496025121 4.77996988069 0)
(22.1112116071 -11.7929959512 0)
(-8.00125752259 -2.63695661369 0)
(-1.36930548535 -5.71271195922 0)
(-2.67172315004 -6.08585543879 0)
(-4.28813185277 -5.72071870335 0)
(-4.9772504557 -5.27918439685 0)
(-5.38791538074 -4.78645616938 0)
(-5.73554431933 -4.28912870973 0)
(-6.03285594613 -3.83169832847 0)
(-6.29384955168 -3.42771464784 0)
(-6.53819497779 -3.07513342244 1.01511367924e-27)
(-6.77700748792 -2.7681097586 -1.00104158662e-27)
(-7.01393022123 -2.5003169778 0)
(-7.24919314545 -2.2657396898 0)
(-7.48165239492 -2.05909718068 0)
(-7.70955048083 -1.87602892027 0)
(-7.93091172855 -1.71306795169 0)
(-8.14380465331 -1.56751985993 0)
(-8.34648925193 -1.43732776773 0)
(-8.53747564949 -1.3209527332 0)
(-8.71553188354 -1.21727574526 0)
(-8.87966765684 -1.12552156434 0)
(-9.02910802942 -1.04520185262 0)
(-9.16326414292 -0.976074803423 0)
(-9.2817047843 -0.918117921794 0)
(-9.38413088071 -0.871511921076 0)
(-9.47035358777 -0.836633418767 0)
(-9.5402759019 -0.814056332619 0)
(-9.59387872304 -0.804559107223 0)
(-9.63120525314 -0.809143615569 0)
(-9.65236586469 -0.829052019641 0)
(-9.65747686443 -0.865821867988 2.33226753912e-27)
(-9.64680893481 -0.921308658175 -2.35276457564e-27)
(-9.62033478152 -0.997873065896 0)
(-9.58029189088 -1.07897473738 0)
(-9.53373336555 -1.12982470397 0)
(-9.48211367837 -1.14523618017 0)
(-9.42591459706 -1.12281243932 0)
(-9.36545873771 -1.06309063494 0)
(-9.30066609577 -0.969131556421 0)
(-9.23089669423 -0.84567879954 0)
(-9.15517985871 -0.69846218053 0)
(-9.07249148868 -0.533714592014 0)
(-8.981853086 -0.357702242888 0)
(-8.88234437301 -0.176264209538 0)
(-8.77313980962 0.005543774333 0)
(-8.65356885452 0.183662844818 0)
(-8.52316544238 0.355116499565 0)
(-8.38169465644 0.517990084356 0)
(-8.2291598251 0.671324041546 0)
(-8.06579199876 0.814942605702 0)
(-7.89202083865 0.949244094521 0)
(-7.70842712618 1.07497872849 0)
(-7.5156803297 1.19303817925 0)
(-7.31446765447 1.30427658264 0)
(-7.10542368568 1.40937907806 0)
(-6.88907175193 1.50878855162 0)
(-6.66578916759 1.60269581163 0)
(-6.43580663308 1.69109243471 0)
(-6.19924730889 1.77387790555 0)
(-5.95620177429 1.85100624686 0)
(-5.70682471576 1.92265112813 0)
(-5.45142609566 1.98936278725 0)
(-5.19052661469 2.05219380256 0)
(-4.92483321166 2.11276623406 0)
(-4.6551411421 2.17326091599 0)
(-4.3820675298 2.23634508143 0)
(-4.10587976079 2.3049394808 0)
(-3.82582286671 2.38201721302 0)
(-3.54074272462 2.47003645182 0)
(-3.2463780705 2.57078569759 0)
(-2.94260816742 2.68329475374 0)
(-2.61368354572 2.80666116638 0)
(-2.28718272743 2.92855001927 0)
(-1.86847829707 3.05673556598 0)
(-1.63786788399 3.12702130991 0)
(-0.778516540989 3.30226916704 0)
(-2.13268499507 3.1034836437 0)
(4.05897125546 5.2787659405 0)
(-7.80173421999 4.91634179186 0)
(28.9354275187 -11.41076505 0)
(-11.7787476707 -3.85370643096 0)
(-1.08462012998 -7.54812498404 0)
(-3.00386177321 -7.12620957737 0)
(-4.41146726175 -6.39205105602 0)
(-4.81062768998 -5.74772281854 0)
(-5.06352753027 -5.12656108191 0)
(-5.31083421755 -4.56328816936 0)
(-5.53889612719 -4.07873779023 0)
(-5.75806833912 -3.6658606955 0)
(-5.9818495288 -3.31130082564 0)
(-6.21469311107 -3.00340458888 0)
(-6.45556710115 -2.7326232761 0)
(-6.70162681788 -2.49116499336 0)
(-6.94956436253 -2.27285939306 0)
(-7.19604915926 -2.07294892564 0)
(-7.43796909436 -1.88779534949 0)
(-7.67257633095 -1.71459871552 0)
(-7.89754379557 -1.55117190563 0)
(-8.11096041148 -1.39576988799 0)
(-8.31129622812 -1.24696300655 0)
(-8.49735686433 -1.10354442729 0)
(-8.66823682122 -0.964463627583 0)
(-8.82327614532 -0.828778352345 0)
(-8.96202248831 -0.695619236297 0)
(-9.08419968277 -0.564161883156 0)
(-9.18968174005 -0.433603478183 0)
(-9.27847509113 -0.303140001014 0)
(-9.35069872414 -0.171943676301 0)
(-9.40659012988 -0.0391365431482 0)
(-9.44645553567 0.0962420908368 0)
(-9.47079250787 0.235263215382 0)
(-9.47993493114 0.379213293192 0)
(-9.47492698902 0.529456216777 0)
(-9.45442166327 0.673665932184 0)
(-9.41710989343 0.799168604033 0)
(-9.36295583559 0.903968151106 0)
(-9.29283037812 0.987865016772 0)
(-9.20801747838 1.05217264182 0)
(-9.10992470489 1.09931247632 0)
(-8.99991096175 1.13254342825 0)
(-8.87927068048 1.15564837481 0)
(-8.749270669 1.17251128163 0)
(-8.61111889896 1.18672769201 0)
(-8.46588029317 1.20134975568 2.08550025972e-27)
(-8.31440758166 1.21875924846 -2.09756365461e-27)
(-8.15731030738 1.24063620431 0)
(-7.99494991575 1.26800340676 0)
(-7.82745176546 1.30132887623 0)
(-7.65473439117 1.34066139297 0)
(-7.47655611541 1.38577265074 0)
(-7.29257428959 1.43628399044 0)
(-7.10240948071 1.49176283585 0)
(-6.90570617488 1.5517807465 0)
(-6.70218201971 1.61593185916 0)
(-6.49165923496 1.68381684692 0)
(-6.27407475996 1.75500409391 0)
(-6.0494710421 1.82898247969 0)
(-5.81797409754 1.905126952 0)
(-5.57977141423 1.98269271258 0)
(-5.33510241656 2.060855187 0)
(-5.0842724126 2.1388037013 0)
(-4.82769087868 2.215880773 0)
(-4.56592359561 2.29176222421 0)
(-4.29972266127 2.36663617269 0)
(-4.03003580714 2.44134515233 0)
(-3.75785265089 2.51750031715 0)
(-3.48417205214 2.59734573334 0)
(-3.20933730502 2.68366430645 0)
(-2.9338340302 2.77916460131 0)
(-2.65500992515 2.88632069762 0)
(-2.37581107075 3.00480377788 0)
(-2.08021160204 3.13439547277 0)
(-1.80512727703 3.26217765753 0)
(-1.43567824503 3.396817216 0)
(-1.31601814463 3.46633637389 0)
(-0.429205278795 3.64796401984 0)
(-2.30639638381 3.38133352033 0)
(5.04708963172 5.71687824016 0)
(-9.32022676318 4.98519654584 0)
(36.4271410421 -11.195801896 0)
(-16.2185649456 -5.55439448181 0)
(-0.343589222559 -9.28486872179 0)
(-3.20051779684 -7.89713102221 0)
(-4.28252028245 -6.86998641976 0)
(-4.45237719423 -6.07079848937 0)
(-4.62610749556 -5.36571339472 0)
(-4.8305983434 -4.77424752968 0)
(-5.03529645162 -4.28923067203 0)
(-5.24888406596 -3.88642227648 0)
(-5.47888470666 -3.54488141313 0)
(-5.72463898063 -3.24933013016 0)
(-5.9821899213 -2.98839503921 0)
(-6.24696919372 -2.75359413903 0)
(-6.51450482387 -2.53876758347 0)
(-6.78065237164 -2.33954498307 0)
(-7.0417373133 -2.15285651223 0)
(-7.29461938377 -1.97654676391 0)
(-7.53668845056 -1.80909397454 0)
(-7.76582126154 -1.64941283004 0)
(-7.98032279482 -1.49671893819 0)
(-8.17886525226 -1.35043860127 0)
(-8.36043100229 -1.21015102953 0)
(-8.52426216553 -1.07555300137 0)
(-8.66981795764 -0.946438504691 0)
(-8.7967393637 -0.822687699941 0)
(-8.90482123561 -0.704262757972 0)
(-8.99398959857 -0.591205640499 0)
(-9.0642859951 -0.483643894968 0)
(-9.11585343325 -0.381786181648 0)
(-9.14893198033 -0.285951512805 0)
(-9.16385419001 -0.196522002659 0)
(-9.16107121986 -0.11409642662 2.63724141473e-27)
(-9.14129548005 -0.0391086611343 -2.6764943452e-27)
(-9.10580195887 0.0368863300641 0)
(-9.0563611547 0.117999388664 0)
(-8.99358546046 0.20523164199 0)
(-8.9180273801 0.298587695874 0)
(-8.83022751283 0.397122133414 0)
(-8.73064703947 0.499207807414 0)
(-8.61965504279 0.602919065667 0)
(-8.49758617086 0.706396372071 0)
(-8.36482534678 0.808086114408 0)
(-8.22185739382 0.906863474405 0)
(-8.06926635667 1.00208177306 0)
(-7.90771013734 1.09356202476 0)
(-7.73788910643 1.181525024 0)
(-7.56050898763 1.26648232787 0)
(-7.37623679495 1.34911168008 0)
(-7.18565594315 1.4301391929 0)
(-6.98922975495 1.51024274173 0)
(-6.78728064015 1.58998447286 0)
(-6.5799888749 1.66977451004 0)
(-6.36741156386 1.74986349062 0)
(-6.14951873038 1.8303567298 0)
(-5.92624022359 1.9112403393 0)
(-5.69751354129 1.99241169926 0)
(-5.46332423743 2.07370116336 0)
(-5.22372973704 2.15489033963 0)
(-4.97886712992 2.23572085342 0)
(-4.72894809998 2.31590916886 0)
(-4.47425263009 2.39518451779 0)
(-4.21513790554 2.47334940349 0)
(-3.95206442689 2.55040796423 0)
(-3.68563670756 2.62671479096 0)
(-3.41665842392 2.70312285659 0)
(-3.14605972795 2.78123975142 0)
(-2.87497091511 2.86329256467 0)
(-2.6041797627 2.95218937324 0)
(-2.33519289461 3.0507439376 0)
(-2.06640294995 3.16171566898 0)
(-1.80380657379 3.28466127948 0)
(-1.53132399595 3.41874297546 0)
(-1.29739855071 3.54939604305 0)
(-0.967057209144 3.68506503574 0)
(-0.957584907137 3.74512953545 0)
(-0.0273503626868 3.92031662194 0)
(-2.5154800584 3.57101824452 0)
(6.18599046208 6.07572632483 0)
(-10.9546477534 5.00031014268 0)
(44.5124109182 -11.0353976353 0)
(-21.2670773145 -7.51388572707 0)
(0.951059695942 -10.7255502761 0)
(-3.31372424258 -8.37713091089 0)
(-3.9734550058 -7.19843901792 0)
(-4.01030843246 -6.30297609417 0)
(-4.16879223305 -5.55929004129 0)
(-4.36672805989 -4.9700264175 0)
(-4.57474165435 -4.5015498809 0)
(-4.80165912672 -4.11803055793 0)
(-5.05014857488 -3.79413269809 0)
(-5.31635052291 -3.51237502319 0)
(-5.59482971067 -3.26035294313 0)
(-5.8802246055 -3.02937906627 0)
(-6.1675641817 -2.81355445231 0)
(-6.4524051304 -2.60897507495 0)
(-6.7309151588 -2.41309884452 0)
(-6.99988290946 -2.22428435064 0)
(-7.2566761231 -2.04146971503 0)
(-7.49917653013 -1.86395577054 0)
(-7.72570922099 -1.69126379783 0)
(-7.93497502098 -1.52304583397 0)
(-8.12599007046 -1.35903080667 0)
(-8.29803400225 -1.19899380101 0)
(-8.45060715748 -1.04273972388 0)
(-8.58339545706 -0.890094530592 0)
(-8.69624353157 -0.740901491712 0)
(-8.78913197832 -0.59501608513 0)
(-8.8621639301 -0.452307967767 0)
(-8.91555019741 -0.312644179456 0)
(-8.94960803304 -0.175915244305 0)
(-8.96476404013 -0.0419493315597 0)
(-8.96152188883 0.0892883974539 0)
(-8.9405937432 0.218111425323 0)
(-8.90151418415 0.340383803325 0)
(-8.84481099758 0.45521923325 0)
(-8.771168789 0.562630869364 0)
(-8.68152039334 0.66316961851 0)
(-8.57694029892 0.757723864269 0)
(-8.45855312478 0.847338499972 0)
(-8.32746085081 0.933078333473 0)
(-8.18470625341 1.01593122298 0)
(-8.03126812049 1.09673670118 0)
(-7.86806349752 1.1761472749 0)
(-7.69594208217 1.25463718381 0)
(-7.51567863326 1.33255126026 0)
(-7.32797170855 1.41016845676 0)
(-7.13344702139 1.48775659936 0)
(-6.93265929506 1.56560543026 0)
(-6.72608968727 1.64403307325 0)
(-6.51413999883 1.72336688331 0)
(-6.29712655704 1.80390500825 0)
(-6.07527746431 1.88586829199 0)
(-5.84873677248 1.9693557043 0)
(-5.61757827603 2.05431314497 0)
(-5.3818309288 2.1405211192 0)
(-5.14151118108 2.22761229642 0)
(-4.89666168087 2.31509738414 0)
(-4.64738204788 2.40242080526 0)
(-4.39385175014 2.4890080757 0)
(-4.13633507966 2.57431956269 0)
(-3.87517097683 2.65791614083 0)
(-3.61077356291 2.73949326408 0)
(-3.34362196997 2.81900533482 0)
(-3.07429313024 2.89678545228 0)
(-2.80350931961 2.97364542881 0)
(-2.53218173412 3.05122511524 0)
(-2.26133931039 3.13181592236 0)
(-1.99194659024 3.21850653475 0)
(-1.72619755655 3.31396171582 0)
(-1.46303280289 3.4216423309 0)
(-1.21159941308 3.54044659722 0)
(-0.956015156322 3.66795342889 0)
(-0.758293261643 3.78776399168 0)
(-0.461409707398 3.90786414292 0)
(-0.563358576266 3.94672819349 0)
(0.417292235159 4.08940359551 0)
(-2.77513056334 3.67077419773 0)
(7.54808896379 6.36612651783 0)
(-12.7160209394 4.9357394077 0)
(53.0876075222 -10.9909748934 0)
(-26.8641562567 -9.64252630401 0)
(2.82017794344 -11.8208999696 0)
(-3.45227697333 -8.64269351188 0)
(-3.5676737608 -7.45052072962 0)
(-3.57231076328 -6.49347446657 0)
(-3.74765485174 -5.74108661015 0)
(-3.95272172352 -5.17054708135 0)
(-4.17396819191 -4.72633105357 0)
(-4.41943543639 -4.36602355422 0)
(-4.687918147 -4.06170422593 0)
(-4.97373106227 -3.7944950081 0)
(-5.2707298357 -3.55154538455 0)
(-5.57319090757 -3.32437926542 0)
(-5.8759575222 -3.10763697854 0)
(-6.17453319135 -2.89807537765 0)
(-6.46511606894 -2.69382909901 0)
(-6.74456657604 -2.49389745772 0)
(-7.0103391549 -2.29779810262 0)
(-7.26040283589 -2.10534262772 0)
(-7.4931636611 -1.91649655025 0)
(-7.70739404981 -1.73129771599 0)
(-7.9021717435 -1.54981271839 0)
(-8.07682839193 -1.37211708593 0)
(-8.23090779429 -1.19828944438 0)
(-8.36413103234 -1.02841278544 0)
(-8.47637147162 -0.86258015897 0)
(-8.56762830914 -0.700898370383 0)
(-8.63802258978 -0.543501135638 0)
(-8.68775482703 -0.390536503832 0)
(-8.71716918115 -0.242223068505 0)
(-8.726569707 -0.0987252602077 0)
(-8.71668393255 0.0394764533242 0)
(-8.68769909257 0.172935557196 0)
(-8.64056838543 0.303543284107 0)
(-8.57580687354 0.431507321218 0)
(-8.49403437973 0.55678287636 0)
(-8.39596446929 0.679101862472 0)
(-8.28237982245 0.798058137039 0)
(-8.1541196165 0.913216432587 0)
(-8.01207162406 1.02422495649 0)
(-7.85716834222 1.13090212726 0)
(-7.69038658295 1.23327467232 0)
(-7.5127408718 1.33156794324 0)
(-7.32526252822 1.42616931179 0)
(-7.12896788324 1.51758519047 0)
(-6.92482488577 1.60640133774 0)
(-6.71372406293 1.69324880626 0)
(-6.49645547009 1.77877528228 0)
(-6.27369242465 1.86361922673 0)
(-6.04598335186 1.94838273663 0)
(-5.81375208576 2.03360083291 0)
(-5.57730669987 2.11970412187 0)
(-5.33685519422 2.20698247683 0)
(-5.092526169 2.29555329342 0)
(-4.84439662634 2.38533360285 0)
(-4.59251776733 2.47605386864 0)
(-4.33695245221 2.56725415523 0)
(-4.07779820606 2.65835383169 0)
(-3.81521744572 2.74869842227 0)
(-3.54945202015 2.83762638779 0)