/*--------------------------------*- C++ -*----------------------------------*\
| =========                 |                                                 |
| \\      /  F ield         | OpenFOAM: The Open Source CFD Toolbox           |
|  \\    /   O peration     | Version:  v1806                                 |
|   \\  /    A nd           | Web:      www.OpenFOAM.com                      |
|    \\/     M anipulation  |                                                 |
\*---------------------------------------------------------------------------*/
FoamFile
{
    version     2.0;
    format      ascii;
    class       volScalarField;
    location    "600";
    object      p;
}
// * * * * * * * * * * * * * * * * * * * * * * * * * * * * * * * * * * * * * //

dimensions      [0 2 -2 0 0 0 0];


internalField   nonuniform List<scalar> 
6400
(
0.184817531495
0.184415961719
0.184008058747
0.18378894121
0.183908311698
0.183787276431
0.183016631174
0.181547631682
0.179519126038
0.176990047621
0.174046541715
0.170783393074
0.167296079467
0.163674505998
0.159999129533
0.156339025955
0.152751423976
0.149282230551
0.145967144156
0.142833046024
0.139899452978
0.13717989546
0.134683146035
0.132414267085
0.1303754745
0.128566830505
0.126986786905
0.125632603268
0.124500665893
0.12358673167
0.122886111761
0.122393799505
0.122104575234
0.122013193895
0.122114762
0.122405197533
0.122881091317
0.1235371256
0.124365269421
0.125358682888
0.126511763469
0.127818286981
0.129271962051
0.130866568806
0.132596021334
0.134454388332
0.136435887851
0.138534859779
0.140745715883
0.143062866521
0.145480623929
0.147993083826
0.150593989379
0.153276584449
0.156033465726
0.158856445926
0.16173644187
0.164663401967
0.167626286681
0.170613113164
0.173611070967
0.176606710019
0.179586194687
0.18253560936
0.185441292191
0.188290165252
0.191070018121
0.193769687023
0.19637906419
0.198888873678
0.201290120245
0.203572990865
0.205724796247
0.20772694618
0.20955260168
0.211165938169
0.212513289259
0.213493284223
0.213968875262
0.21398827017
0.184613696482
0.184189494953
0.183951397733
0.183759676473
0.183598321212
0.183586011825
0.18287184923
0.181410841252
0.179349847984
0.17677558559
0.173786525451
0.170482956398
0.166963083238
0.163317779323
0.159627338143
0.155959977357
0.152371702903
0.148907075027
0.145600483532
0.142477635656
0.139557055679
0.136851474795
0.134369049559
0.132114387484
0.130089383621
0.128293885426
0.126726209627
0.125383536012
0.124262203775
0.123357935671
0.122666006864
0.122181343691
0.121898523479
0.121811800846
0.12191561101
0.122205805138
0.122680512496
0.123336295684
0.124166652588
0.125164065055
0.126320783405
0.127630017126
0.129085305623
0.130680400248
0.132409232845
0.134265907152
0.136244686356
0.138339965731
0.140546225223
0.142857958526
0.145269577839
0.147775295016
0.150368983099
0.153044024563
0.155793156234
0.158608322907
0.161480554231
0.164399879647
0.167355295976
0.170334799233
0.17332548872
0.176313745005
0.17928547672
0.182226422283
0.185122483787
0.187960062153
0.190726354698
0.193409560794
0.195998932343
0.198484619044
0.200857215324
0.203106842283
0.205221532439
0.207184860584
0.208973480778
0.210555078064
0.211883270247
0.212883536622
0.213450198893
0.213553240384
0.185046781822
0.184481120506
0.184054005208
0.183824542199
0.183447427814
0.18294623584
0.181934374343
0.180313829961
0.178131842067
0.175468135388
0.172420925498
0.169089523138
0.165569115439
0.161946240096
0.158296316384
0.154682726718
0.151157060658
0.147760093414
0.144523144325
0.14146955705
0.138616134685
0.135974436085
0.133551891599
0.131352729727
0.129378725691
0.127629792291
0.126104436478
0.124800105294
0.123713445508
0.122840504067
0.122176881211
0.121717785444
0.121457879426
0.121391211207
0.121512686272
0.121821292133
0.122314809774
0.122985939127
0.123827443344
0.124833060968
0.125996149575
0.127310186796
0.128768795392
0.130365759848
0.13209503712
0.133950763085
0.135927248555
0.138018959028
0.140220473147
0.142526416199
0.144931366563
0.147429735346
0.150015622184
0.152682653581
0.155423813517
0.158231279248
0.161096277533
0.164008977759
0.166958437822
0.169932616148
0.172918459212
0.175902067873
0.178868938077
0.181804264047
0.184693280409
0.18752161237
0.1902755998
0.192942549832
0.195510835855
0.197969829149
0.200309565577
0.202520005543
0.204589839133
0.206504732087
0.208244836776
0.209781876817
0.211077028309
0.212075428332
0.212684587726
0.212837269018
0.18588737182
0.185247324487
0.184575618035
0.183922419432
0.183115216109
0.182072066268
0.180629615174
0.178718688436
0.176346089911
0.173568035243
0.170466101806
0.167128052013
0.163639052004
0.160076408522
0.156507159001
0.152987380907
0.1495625933
0.146268768676
0.143133617354
0.140177923609
0.137416803818
0.134860821419
0.132516935158
0.130389281682
0.128479806517
0.126788762517
0.12531509556
0.124056737996
0.123010834019
0.122173920316
0.121542053264
0.121110790658
0.120874955075
0.120828777849
0.120968307353
0.121295162533
0.121805851563
0.122491100235
0.12334463315
0.124359945633
0.125530517667
0.126849910162
0.12831179948
0.129910006076
0.131638519677
0.133491518524
0.135463377382
0.137548658406
0.139742079314
0.142038454049
0.144432602678
0.146919229448
0.149492771084
0.152147221134
0.154875940322
0.157671466646
0.160525342037
0.163427974097
0.16636855153
0.169335028711
0.17231419138
0.17529180961
0.1782528737
0.181181905635
0.184063321133
0.186881810416
0.189622700633
0.192272298756
0.194818044313
0.197248551721
0.199553455491
0.201722845084
0.203746393909
0.205612103712
0.207304094591
0.208799434584
0.210067293143
0.211067658402
0.211706992064
0.211911792747
0.186780013458
0.185934198122
0.184913964268
0.18376521406
0.18244464046
0.180891487892
0.179013043784
0.176770744751
0.174171831156
0.171259965626
0.168099723667
0.164762975419
0.161320530969
0.157837111845
0.154369045356
0.150963620841
0.147659432253
0.144487227838
0.141470962891
0.138628875318
0.135974487609
0.133517491414
0.131264501258
0.129219680644
0.127385251686
0.125761901563
0.124349098955
0.12314533726
0.122148331252
0.12135518022
0.120762440937
0.120365977277
0.120160770551
0.120141840966
0.120307203495
0.120658064523
0.121189489827
0.121892118508
0.122760120771
0.123787205664
0.124967015367
0.126293199197
0.127759476196
0.129359685528
0.131087830316
0.13293811373
0.134904962948
0.13698303514
0.139167199012
0.141452485854
0.143834005156
0.146306822086
0.148865797446
0.151505395272
0.154219468086
0.157001034815
0.159842070179
0.162733326649
0.165664211764
0.168622738835
0.171595564884
0.174568129716
0.177524885214
0.180449620484
0.183325848458
0.186137236795
0.188867979738
0.191503301164
0.194029626789
0.196434718088
0.198707759457
0.200838914694
0.202818650977
0.204636882537
0.206281268321
0.207733928628
0.208969902636
0.209964266106
0.210616552958
0.210871130565
0.187285348891
0.186052151805
0.184695290631
0.183111521042
0.181327786491
0.179323456091
0.177057297795
0.174515381079
0.171711289924
0.168682234756
0.16547943595
0.162159538543
0.158778555283
0.155388065527
0.152033375128
0.148752949278
0.145578607223
0.14253610709
0.139645889858
0.136923850345
0.134382066376
0.132029454166
0.129872337952
0.127914932904
0.126159745811
0.124607899556
0.123259387964
0.122113274541
0.121167863631
0.120420849368
0.119869324043
0.119509475339
0.119336539017
0.119346965107
0.119542023541
0.119919338567
0.120471827306
0.121193002759
0.122076680308
0.123116618815
0.124306526393
0.12564009773
0.127111069224
0.128713278473
0.130440723094
0.132287614277
0.134248419387
0.136317886652
0.138491044087
0.140763164734
0.143129691273
0.145586115006
0.148127807823
0.15074981131
0.153446593073
0.15621178667
0.159037937188
0.16191627532
0.164836549705
0.167786940252
0.170754059773
0.173723085266
0.176677973786
0.17960181484
0.182477226549
0.185286904104
0.188013877531
0.190642335311
0.193157744811
0.195546991092
0.197798817427
0.199903397393
0.201851706698
0.203634937459
0.205243340357
0.206663163933
0.207871364622
0.208859449913
0.209515135429
0.209815927532
0.186650004391
0.185271026997
0.183727355471
0.181828983451
0.179695065564
0.177341585838
0.174772375483
0.171996841725
0.169036378542
0.165924821264
0.162703562969
0.15941680477
0.156107879068
0.152816861078
0.149579345981
0.146426022071
0.143382738491
0.140470841053
0.137707633672
0.135106881492
0.13267930839
0.130433062382
0.128374134351
0.126506723044
0.124833544195
0.123356083867
0.122074798356
0.120989271878
0.120098358876
0.119400308168
0.118892722661
0.11857219659
0.118434427394
0.11847697949
0.118702572577
0.119107592978
0.119683438596
0.120424569116
0.121325059824
0.122378829772
0.123579669356
0.124921301824
0.12639745332
0.128001927865
0.129728683609
0.131571906034
0.133526072086
0.13558599734
0.137746856666
0.140004168231
0.142353731451
0.144791511058
0.147313462693
0.149915303063
0.152592234701
0.155338642223
0.158147789137
0.161011536085
0.16392011902
0.166862030777
0.169823963852
0.172790958453
0.175746573228
0.178673314805
0.18155294488
0.184367373884
0.187098449343
0.189729449603
0.192245043389
0.194631216222
0.19687630379
0.198970398652
0.200904674514
0.202671002506
0.204261067166
0.205664584627
0.206856306224
0.207845100206
0.208502341304
0.208845977556
0.18497339244
0.183594160941
0.181983452814
0.179899508986
0.177543441297
0.174958551873
0.172185621926
0.169254837906
0.166196530129
0.163043870397
0.159831822054
0.156595457976
0.153368363104
0.150181515032
0.147062667627
0.144036108416
0.141122669975
0.138339898937
0.135702317994
0.133221737078
0.130907582674
0.12876722225
0.126806267055
0.125028842247
0.123437818063
0.122034999167
0.120821273631
0.119796732184
0.118960776895
0.118312204829
0.117849137818
0.11756871857
0.117467385039
0.117543595542
0.117800370264
0.118233437036
0.118833381664
0.119595223771
0.120513277689
0.121581602113
0.122794048535
0.12414434339
0.125626173252
0.127233275304
0.128959531341
0.13079906185
0.132746314135
0.134796135677
0.136943821304
0.139185121233
0.141516197748
0.14393351972
0.146433684957
0.149013171736
0.15166803173
0.154393535406
0.157183817867
0.160031537172
0.162927574919
0.165860925292
0.168818508844
0.171785422196
0.174744948866
0.17767925529
0.180569258261
0.183396505963
0.186141646607
0.188787260528
0.191317519886
0.193717413414
0.1959749308
0.19807991991
0.200023359139
0.201797341204
0.203393702116
0.204804988148
0.206000346918
0.207004915119
0.20767010295
0.208055647833
0.182528401831
0.181187442749
0.179568048706
0.17739785348
0.174929795939
0.172220343213
0.169337833301
0.166328390267
0.163230644403
0.16007877976
0.15690412894
0.153735697786
0.150600191443
0.147521915947
0.144522689062
0.141621801459
0.138836044057
0.136179801583
0.133665204678
0.131302325821
0.12909940033
0.127063053215
0.125198515526
0.123509818409
0.121999957453
0.12067102387
0.11952430603
0.118560374424
0.117779156765
0.117179963001
0.116761367949
0.116521056761
0.116456428103
0.116566923264
0.116854989033
0.117315885663
0.117939973041
0.11872271316
0.119658624792
0.12074187143
0.121966334485
0.123325712721
0.124813620288
0.126423690727
0.128149687678
0.129985620069
0.131925856037
0.133965225951
0.136099101151
0.138323431961
0.14063472902
0.143029975863
0.145506453207
0.148061470913
0.15069203472
0.15339442855
0.156163807436
0.158993813464
0.161876117057
0.164800456456
0.16775411245
0.17072252411
0.173688786297
0.176635199352
0.179541725745
0.182390343915
0.185160460806
0.187834201249
0.190395760832
0.192828845775
0.19512140856
0.197263031865
0.199244009153
0.2010564152
0.202691059588
0.204141883776
0.20537038463
0.206413324424
0.207100527342
0.207531792573
0.17949891474
0.178215514783
0.176623729985
0.174438534027
0.171942544551
0.169194417859
0.166281232424
0.163259491882
0.160174286722
0.157061347404
0.153950274259
0.150866407346
0.147831957274
0.144866638732
0.141987998051
0.13921157618
0.136551007527
0.134018114534
0.131623025404
0.129374318713
0.12727918528
0.125343592639
0.123572438717
0.121969685134
0.120538464001
0.119281155898
0.118199446275
0.117294380004
0.116566406372
0.11601532724
0.115640071035
0.115438736187
0.115410025905
0.115555319732
0.115874678747
0.116362494961
0.11701040433
0.11781400023
0.118767917953
0.11986636873
0.121103228167
0.122472139257
0.12396661584
0.12558015547
0.127306364072
0.129139091294
0.131072571234
0.133101558168
0.135221441978
0.137428323025
0.13971902325
0.142091026746
0.144542317101
0.147071080002
0.149675364869
0.152352583636
0.155099027683
0.157909546442
0.160776662478
0.163691188962
0.166640805217
0.169611751066
0.172586883715
0.175549510018
0.178478249937
0.181356686076
0.18416285191
0.186878523416
0.189488964411
0.191976088662
0.194329039767
0.196537761787
0.198590702123
0.200479354202
0.202192624581
0.203722791647
0.205023803766
0.206134542311
0.206864814509
0.207352884471
0.176029784035
0.174822044933
0.173286923919
0.171139108999
0.168677021259
0.165955256442
0.163072851891
0.160091877702
0.157061839099
0.154019857794
0.150994892355
0.148010265141
0.145085445919
0.142237149952
0.139479968263
0.13682671388
0.134288624339
0.131875508336
0.129595880698
0.127457099392
0.125465501656
0.12362653003
0.121944839778
0.120424382427
0.119068462556
0.117879767985
0.116860384517
0.116011820958
0.115335029262
0.114830275637
0.114496777015
0.114332941646
0.114338978392
0.114519162466
0.114869298618
0.115382185326
0.116053111796
0.116877134503
0.117848862275
0.118962489646
0.120211856162
0.121590529604
0.123091904658
0.124709318619
0.126436186146
0.128266152671
0.130193262035
0.132212127334
0.134318087033
0.136507325995
0.138776917925
0.141124803507
0.14354967072
0.146050588384
0.148626716166
0.151276702205
0.153997997831
0.156786977501
0.159636885913
0.162540117636
0.165484591857
0.168458109562
0.171442956528
0.174424722346
0.177379811945
0.180294701336
0.183146029126
0.185915316625
0.188591329114
0.191153233519
0.193593783774
0.195904637556
0.198069459469
0.200077725234
0.20191618829
0.20357138119
0.204993831144
0.206212720865
0.207018499299
0.207586893249
0.172261058663
0.171140047277
0.169681510498
0.167608031329
0.165223547878
0.162575084455
0.159768723314
0.156868422063
0.153926316111
0.150980450376
0.148059652628
0.145186230045
0.142378075998
0.139650022734
0.137014674929
0.134482910374
0.132064195853
0.129766811256
0.127598029803
0.125564272109
0.123671236119
0.121923999486
0.120327091752
0.118884536414
0.117599864366
0.116476102431
0.115515751252
0.114720780123
0.114092618689
0.113631977482
0.113338431769
0.1132108128
0.113250241053
0.113461789349
0.113840732233
0.11437891909
0.115072423313
0.115916423752
0.116905597906
0.118034156141
0.119295911787
0.12068436095
0.122192777536
0.123814328883
0.125542217064
0.127369847424
0.129291022066
0.131300148454
0.13339243593
0.13556407862
0.137812326098
0.140135491268
0.14253296088
0.145004643942
0.147550830202
0.150171545246
0.152865210119
0.155630263583
0.158460204926
0.161349815541
0.164286793865
0.167261510446
0.170254910839
0.173256009483
0.176237858258
0.179191429688
0.182093047878
0.184924128728
0.187681649216
0.1903399536
0.19289491758
0.195340311438
0.19765355441
0.199822230076
0.201832832958
0.203666240575
0.205272324984
0.206659915434
0.207592858303
0.208286180734
0.168318682798
0.167287811823
0.165916586717
0.16394110507
0.161662900637
0.159119549506
0.156420589068
0.153629162417
0.150798594193
0.147967266604
0.145164010331
0.142410640912
0.139724174931
0.13711828831
0.134604275332
0.13219167121
0.129888674858
0.127702455889
0.125639389447
0.123705236834
0.121905277675
0.120244395881
0.11872712296
0.117357644329
0.116139774952
0.115076912475
0.114171984655
0.113427414101
0.112845074961
0.112426092673
0.112170475038
0.112077600845
0.112149148342
0.112390109483
0.112796072114
0.113358442054
0.114073547167
0.114936657039
0.115942507846
0.117085332812
0.118358931734
0.119756743859
0.121271934928
0.122897507668
0.124626444853
0.126451889022
0.128367357315
0.130366995983
0.132445803598
0.134599905825
0.136826654508
0.139124586656
0.141493798135
0.14393493658
0.146449337279
0.149038684112
0.151701789296
0.154440090933
0.157246441058
0.160119030669
0.163044549516
0.16601655231
0.169013819826
0.172029346511
0.175032878986
0.17802268527
0.180979520496
0.183880214965
0.186733674333
0.189511147223
0.192199941578
0.194795948773
0.197285700241
0.199657890902
0.201896373899
0.203975958821
0.205842463965
0.207474757269
0.208608290477
0.209491631656
0.164305411963
0.163363300102
0.162083585274
0.160219467684
0.158064382756
0.155645849438
0.153074283434
0.150410104078
0.147706710391
0.145002221775
0.142325380735
0.13969771128
0.137135721801
0.13465237024
0.132258091754
0.129961511323
0.127769957257
0.125689843217
0.123726954064
0.12188665183
0.120174010445
0.118593886968
0.117150938942
0.115849598862
0.11469401653
0.113687982512
0.11283485286
0.112137488244
0.111598165962
0.111218358168
0.110998486835
0.110938565677
0.111040736606
0.111309494079
0.111741015805
0.112326243449
0.113061680093
0.113942675162
0.114964024402
0.116119996827
0.117404400076
0.118810643155
0.120331810539
0.12196076136
0.123690268126
0.125513205359
0.127422770325
0.12941281272
0.131478038382
0.133614425028
0.135819398704
0.138091464621
0.140431484269
0.142840709332
0.145321227493
0.147876984209
0.150506076084
0.153214249139
0.155992463385
0.158842829243
0.161750365868
0.16471132485
0.167702987417
0.170723709531
0.173745281882
0.176768575678
0.179791592799
0.182770267047
0.185710415541
0.188598196009
0.191425837871
0.194189539234
0.196882477968
0.199496136525
0.202015093844
0.204410487089
0.206623762106
0.208597702116
0.210046275185
0.211236320939
0.160301559522
0.159444213486
0.158256037477
0.156509258132
0.154485371749
0.152202139688
0.149769074863
0.147242614395
0.144675413942
0.142104781413
0.139559168803
0.137059812203
0.134622865489
0.132260810872
0.129983515945
0.127799007438
0.125714054589
0.123734610507
0.12186613737
0.12011382952
0.118482745764
0.116977863901
0.115604072964
0.114366118974
0.113268518445
0.112315457579
0.111510703489
0.110857528909
0.110358565355
0.110015501381
0.109829023887
0.109800040166
0.109931746869
0.110227045349
0.110682527314
0.111288986563
0.112043126326
0.112940376089
0.113975587565
0.1151430767
0.116436683104
0.117849819346
0.119375526082
0.121006553532
0.12273548452
0.124554944644
0.126457775268
0.128437527987
0.130488537595
0.1326065271
0.134789093627
0.137034288023
0.13934386347
0.141719601013
0.144163718512
0.146683447314
0.149274592391
0.151948238007
0.154692363013
0.157512023528
0.160391447968
0.163329639973
0.166307042661
0.169324567408
0.172376316231
0.175426739012
0.178480618487
0.181517239626
0.184532790521
0.187521544116
0.190481167848
0.193412829533
0.196317396802
0.199193107001
0.202029609717
0.204799261023
0.207441901208
0.209867302401
0.21179155832
0.21344880718
0.156368966327
0.155590909478
0.154491565088
0.152862905247
0.150972047838
0.1488278331
0.146537675936
0.144153283221
0.141726004747
0.139291876739
0.136878826674
0.134507704928
0.132194339886
0.129950857735
0.127786743262
0.125709649544
0.123726028819
0.121841613694
0.12006176579
0.118391704128
0.116836627485
0.115401748921
0.114092263473
0.112913268933
0.111869656101
0.110965989736
0.11020641487
0.109594579281
0.109133418096
0.108824695167
0.108669167243
0.108669150269
0.108830714615
0.10915201385
0.109628551206
0.110254155124
0.111025016588
0.1119365239
0.112983542077
0.114160435068
0.115461097081
0.116878981792
0.118407129269
0.120038229406
0.121764696003
0.123578966106
0.125473465431
0.12744149328
0.129476952407
0.131575109922
0.133734069079
0.135950808253
0.138228147482
0.140568527407
0.1429732681
0.14545397123
0.14800248941
0.150634993453
0.153336760545
0.156114312465
0.158956030082
0.161862417507
0.164832736512
0.16783435663
0.170873012786
0.173928763579
0.176995234787
0.180061968066
0.183125618349
0.186186420678
0.189248899986
0.192321905189
0.195416085348
0.198540268637
0.201694012178
0.204857098127
0.207972201048
0.210920776659
0.213423795866
0.215567903931
0.152554483674
0.151849436958
0.15083442983
0.149321085054
0.147560748117
0.145554441811
0.143406700603
0.141164131701
0.138876421291
0.136577975671
0.134295981506
0.13205076914
0.129857809826
0.127728924411
0.125673332266
0.123698475412
0.121810675295
0.120015633588
0.118318787312
0.116725529898
0.115241315843
0.113871672176
0.112622142623
0.111498187704
0.110505058488
0.109647666594
0.108930489304
0.108357493147
0.107931863598
0.107655424834
0.107529027392
0.107556193856
0.107744943522
0.108090569374
0.108586644915
0.109229500305
0.110015001535
0.110938522223
0.111994953821
0.113178725616
0.114483811176
0.115903746156
0.117431610045
0.119060104113
0.120781464047
0.122588075155
0.124471825729
0.126425860288
0.128443654162
0.130519622334
0.132653048864
0.134839105124
0.137081749898
0.139384429795
0.141746154148
0.14418338581
0.14668303956
0.149264692686
0.151916594143
0.154642438
0.157451822782
0.160312631069
0.163236505599
0.166204224078
0.169208582417
0.172237112353
0.175282005616
0.17833741263
0.18140281899
0.18448338123
0.187590335198
0.190740978079
0.193956781068
0.197259312166
0.200661072398
0.204153677035
0.20767926406
0.211069293735
0.214035862395
0.216522127591
0.1488927639
0.148254140356
0.147317906226
0.145914697768
0.144279471832
0.142406636509
0.140397354084
0.138293034636
0.136141500329
0.133975269909
0.131820616762
0.12969721996
0.127620142372
0.125600916317
0.123648571945
0.121770457607
0.119972902781
0.118261719277
0.116642546681
0.1151210544
0.113703022027
0.112394326153
0.11120086362
0.11012843686
0.109182620146
0.108368629152
0.107691228114
0.107154646854
0.106762286296
0.10651615152
0.106417441597
0.106470404566
0.106683023464
0.107050480621
0.107564827945
0.108223011632
0.109020944666
0.109954038148
0.111017231371
0.112205039019
0.11351152891
0.114930365038
0.116454681445
0.118077314695
0.119790220265
0.12158599906
0.123455776911
0.125392678262
0.127389921604
0.129440419068
0.131545582994
0.133698110723
0.13590272995
0.138164321991
0.14047792836
0.142864476742
0.145310391078
0.147829942571
0.15043820466
0.153102482234
0.155844880247
0.158648260544
0.16150816577
0.164412137383
0.167349922051
0.170310985222
0.173287553185
0.176275478046
0.179276116712
0.182297577386
0.185355549332
0.188473545917
0.19168146738
0.19501111585
0.198484658574
0.20209917975
0.205757241853
0.209198976032
0.21264999768
0.216566444908
0.14540870558
0.144829950787
0.143966385503
0.142666668337
0.141149318928
0.139403327421
0.137526198847
0.135554239796
0.133533326133
0.131493923108
0.129461272408
0.127454294491
0.125487596153
0.123572424561
0.121717671148
0.119930672688
0.118217863256
0.116585258951
0.115038779939
0.113584424368
0.112228320544
0.110976690204
0.109835755936
0.1088116193
0.107910129065
0.107136761833
0.106496535942
0.105993905954
0.105632454804
0.105414480793
0.10534182476
0.1054192568
0.105653604593
0.106040658017
0.106571250022
0.10724257926
0.10805056889
0.108990639157
0.110057758682
0.111246543157
0.112551139694
0.113965411667
0.115482486697
0.117095575367
0.118796057626
0.120577203616
0.122429053977
0.124344839461
0.126317957536
0.128338963542
0.130412211089
0.132527492621
0.134689168274
0.136904294889
0.139165147954
0.141490026871
0.143889650563
0.146342782917
0.148874733129
0.151471924511
0.154136183401
0.1568580051
0.159628484346
0.162435832638
0.165268102247
0.168113999621
0.17096460989
0.173814843362
0.176664992729
0.179522085913
0.182400890123
0.185324307391
0.188322160224
0.19142604902
0.194653940325
0.197978464244
0.201171621571
0.204192382253
0.207777462386
0.213853977577
0.142119578234
0.141594382376
0.140797208821
0.139593531456
0.138185787812
0.136558675951
0.13480590586
0.13295890426
0.131061605119
0.129142333269
0.127225234454
0.125328395078
0.123465932446
0.121648808696
0.119885809596
0.118184313202
0.116550916891
0.114991892113
0.113513472997
0.112121996765
0.110823927338
0.109625799135
0.108534115736
0.107555228738
0.106695215384
0.105959779513
0.105354180167
0.104883080257
0.104550171222
0.104358021107
0.104309483456
0.104410153018
0.104664268415
0.105068750801
0.105613404842
0.106295571915
0.107111143445
0.108055506318
0.109123604322
0.110310194776
0.111609423631
0.113015497935
0.114521308359
0.116120885584
0.117804466737
0.119566645107
0.121396091405
0.123286130982
0.125230900465
0.127217622176
0.129253918602
0.13132685848
0.133439442465
0.135600159698
0.137812784884
0.140075460274
0.142400128721
0.144784569395
0.147235163684
0.149746681663
0.152315004612
0.154931057534
0.157583343547
0.160258241041
0.162941329882
0.16561861322
0.168277858658
0.170909837415
0.173509409128
0.176076293255
0.178615311232
0.181135726485
0.183648735495
0.186160736803
0.188656195789
0.191050286443
0.192983577059
0.194095418512
0.194461057714
0.198044285178
0.139036786197
0.138559202904
0.137822213489
0.136706783866
0.135399902905
0.133882995111
0.132245942683
0.130515599764
0.12873402433
0.126927378649
0.125118696653
0.123325187217
0.121560461859
0.119835198391
0.118158096711
0.116536604129
0.114977507095
0.113487346441
0.11207266662
0.110740121036
0.109496469685
0.108348509155
0.107302969768
0.106366401734
0.10554506614
0.10484486078
0.104271273482
0.103829165749
0.103522222907
0.103353127371
0.103326417218
0.10345011471
0.10372278379
0.104141872914
0.104698184475
0.105388756199
0.106209362394
0.10715530459
0.108221370461
0.109402580987
0.110692857321
0.112087051395
0.113577310266
0.11515921887
0.116821133107
0.118559659788
0.120362071445
0.122221331326
0.124132676858
0.12607901796
0.128071022234
0.130096524568
0.132157928008
0.134265792417
0.13641076163
0.138605264856
0.140853506475
0.143155946176
0.145513833453
0.147922812543
0.150375590212
0.152860953894
0.15536449775
0.157869417156
0.160357524533
0.162810281667
0.165209717205
0.167539053678
0.169782842485
0.171926297903
0.173953301839
0.175842084052
0.177556469859
0.179027897732
0.180116850053
0.180515814418
0.179562022304
0.174701593646
0.158577343119
0.103419605088
0.136167276634
0.135731783153
0.13504899577
0.134014002879
0.132799162732
0.131383520989
0.129853174626
0.128230761457
0.12655657106
0.124854631499
0.123146888741
0.121449658336
0.119776045433
0.118136445388
0.116539481136
0.114992676376
0.113503005386
0.112077263138
0.110722273128
0.109444959217
0.108252321891
0.107151360631
0.10614897586
0.105251867904
0.104466444757
0.103798772794
0.103254555605
0.102838853484
0.102555334908
0.102406783777
0.10239977977
0.102545664732
0.102836162711
0.103266283039
0.103831725898
0.104528256317
0.105351333346
0.106296188352
0.10735716573
0.108529853681
0.109807485257
0.111186110998
0.112656390751
0.114216394165
0.115852040485
0.117562122614
0.119332727269
0.121155199364
0.123026228621
0.124926975497
0.126865468059
0.128847246826
0.130848320611
0.132889160009
0.134966368246
0.137085004066
0.139248548796
0.14145743362
0.143709882075
0.145999717615
0.148316643187
0.150646238928
0.152970424817
0.155268187551
0.157516369064
0.159690333333
0.161764302803
0.163711108633
0.165501000031
0.167098946395
0.16845943398
0.169516875448
0.170167851453
0.170237252347
0.169410825705
0.16709250792
0.162117952664
0.151732131255
0.127661603647
0.0767314820386
0.133514651301
0.133116168874
0.132481921399
0.13151975045
0.130388316712
0.129065054191
0.127632371567
0.126109069918
0.124533804504
0.122928534875
0.121314173213
0.11970614763
0.11811706887
0.116557052234
0.115034643737
0.113557434315
0.112132564842
0.110767049199
0.10946794212
0.108242381685
0.107097550088
0.106040594421
0.105078538102
0.104218195972
0.103466101441
0.102828476228
0.102311210696
0.10191953613
0.101657266574
0.101527670198
0.10153851403
0.101700580203
0.10200585639
0.102446605984
0.103019410748
0.10371970171
0.104542698544
0.105483888003
0.10653662161
0.107697663045
0.108958875585
0.110318298047
0.111764466144
0.113298487886
0.114903702839
0.116579990328
0.118312610104
0.120090776429
0.121911215415
0.123769453748
0.125652647406
0.127569832954
0.129511034617
0.131481693763
0.133482952731
0.135517687028
0.137587729903
0.139691953624
0.141825786604
0.143980168285
0.146141353026
0.148291057096
0.150406882835
0.152462900219
0.154430167392
0.156276962347
0.157968464568
0.159465551762
0.160722228323
0.16168091228
0.162264254463
0.162361114781
0.161802285332
0.160317671283
0.157458728214
0.152456652093
0.143952219848
0.129557008484
0.104218076459
0.062804825888
0.131080031005
0.130713921001
0.130122922795
0.129226292137
0.128169989585
0.126930481269
0.125586624019
0.124153766567
0.122669079141
0.121152544335
0.119624116357
0.118098357293
0.116587404562
0.115101095565
0.113647892556
0.112235432651
0.110870988365
0.109561744346
0.10831492851
0.107137829595
0.106037746698
0.105021911179
0.104097407765
0.103271104942
0.10254960573
0.101939242597
0.101446044068
0.101075381459
0.100831466153
0.10071874697
0.100746088762
0.100921693677
0.10123922374
0.101688693033
0.102266821022
0.102968614571
0.103788782575
0.104723732053
0.105764928526
0.106911228322
0.108152531873
0.109489416952
0.110908089422
0.112411959136
0.113981802386
0.115616337625
0.117302413838
0.119031847693
0.120802460331
0.122602093359
0.124428888699
0.126280566106
0.128152874039
0.13004732052
0.131965336584
0.133908255062
0.135875847007
0.137864649936
0.139867032343
0.141870476449
0.143857369118
0.145805181355
0.147686861942
0.149471268338
0.151123408555
0.152604242348
0.153869750941
0.154868900299
0.155539959605
0.155804338095
0.155556574588
0.154648199022
0.152861596221
0.149867429672
0.145154555763
0.137917341367
0.126864924858
0.110006221788
0.0837828873926
0.047460505303
0.128862724048
0.128524768215
0.127972121142
0.127134161845
0.126145176254
0.124981191539
0.123717678168
0.122366908623
0.120964724599
0.119529239682
0.118079540213
0.116629353785
0.11519037177
0.113772155062
0.11238307049
0.111030772453
0.109722621831
0.108465918691
0.107268000736
0.106136239731
0.10507798244
0.104100474948
0.103210793861
0.102415793128
0.101722088635
0.101136101568
0.10066400098
0.100311251368
0.100082531617
0.0999842196197
0.100026867019
0.100213807702
0.100541820746
0.100998051187
0.101579333916
0.102280306649
0.103094589965
0.104020705158