/*--------------------------------*- C++ -*----------------------------------*\
| =========                 |                                                 |
| \\      /  F ield         | OpenFOAM: The Open Source CFD Toolbox           |
|  \\    /   O peration     | Version:  v1806                                 |
|   \\  /    A nd           | Web:      www.OpenFOAM.com                      |
|    \\/     M anipulation  |                                                 |
\*---------------------------------------------------------------------------*/
FoamFile
{
    version     2.0;
    format      ascii;
    class       volScalarField;
    location    "600";
    object      p;
}
// * * * * * * * * * * * * * * * * * * * * * * * * * * * * * * * * * * * * * //

dimensions      [0 2 -2 0 0 0 0];


internalField   nonuniform List<scalar> 
6400
(
0.188497314349
0.188254673976
0.187875783547
0.187485048732
0.187337103091
0.186969230764
0.186129519932
0.18469568608
0.182713076083
0.180243416694
0.177369673962
0.174184514246
0.170781586774
0.167249224136
0.163666506115
0.160101279531
0.156609649592
0.153236470246
0.150016431885
0.146975436831
0.144132046053
0.141498858959
0.139083750327
0.136890930747
0.134921825937
0.13317578623
0.131650646357
0.130343158022
0.12924932085
0.128364634902
0.127684289574
0.127203291452
0.12691656824
0.126819136992
0.126906420752
0.127174671548
0.127621010471
0.128241357383
0.129028416868
0.129975775416
0.131078799785
0.132332145273
0.133730375282
0.135268096022
0.136940011692
0.13874093617
0.140665778256
0.142709505
0.144867082214
0.147133391964
0.149503126177
0.151970659197
0.154529902878
0.157174152725
0.159895934502
0.162686865499
0.165537544249
0.168437485323
0.171375112409
0.174337822312
0.177312125219
0.180283862443
0.183238492355
0.186161428804
0.189038404955
0.191855828258
0.194601077942
0.197262687306
0.199830345254
0.202294639795
0.204646423264
0.20687557531
0.208968825821
0.210906779666
0.212661526648
0.214194532572
0.21544555616
0.216309520561
0.216676006811
0.216653907842
0.188538823519
0.188260859173
0.187997653898
0.187656927757
0.187241710926
0.186921315656
0.186065950355
0.18459533935
0.182565191821
0.180044331218
0.177122045109
0.173894803765
0.17045829927
0.166901541288
0.163303311478
0.159730533772
0.156238057778
0.152869371657
0.149657842792
0.146628185643
0.143797953568
0.141178929967
0.13877835571
0.136599967971
0.134644853699
0.132912131527
0.131399486546
0.130103578746
0.129020352706
0.128145270729
0.127473488578
0.126999956264
0.126719427462
0.126626483558
0.12671593475
0.126983875692
0.12742868039
0.128047684859
0.128835720026
0.129786247756
0.130892199381
0.13214759777
0.133546813374
0.135084415313
0.136755123576
0.13855378648
0.140475359438
0.142514866556
0.144667345476
0.146927765546
0.149290924617
0.151751319224
0.154302998731
0.156939404317
0.159653209576
0.162436169837
0.165279001646
0.168171302629
0.171101532663
0.174057063068
0.177024306628
0.179988924065
0.182936104544
0.185850899435
0.188718588627
0.191525041724
0.194257033604
0.196902453788
0.199450359161
0.20189080256
0.204214315778
0.206410893157
0.208468317825
0.210369834819
0.212091584146
0.213599555127
0.214843714135
0.215750537304
0.216235640492
0.216300022086
0.189014312696
0.188611767424
0.188149751023
0.187768079992
0.187192307552
0.186457351415
0.185296106528
0.183616902834
0.181432524738
0.178801661005
0.175808515543
0.172545135711
0.16910233358
0.165563804366
0.16200292938
0.158481502268
0.155049779413
0.151747347459
0.148604417441
0.145643269892
0.142879674528
0.140324184744
0.137983260986
0.135860210862
0.133955954506
0.132269634031
0.130799088165
0.129541214028
0.128492239027
0.12764793378
0.127003769808
0.126554982837
0.126296436304
0.126222529468
0.126328418832
0.12661288957
0.127075019709
0.127708699675
0.128506950674
0.12946451986
0.130575631497
0.131834626479
0.133235977934
0.134774298425
0.136444339358
0.138240987547
0.140159251704
0.142194233606
0.144341077458
0.146594894508
0.148950659687
0.151403081732
0.153946449232
0.156574460691
0.159280048068
0.162055208751
0.164890861424
0.167776744487
0.170701372999
0.173652069212
0.176615074806
0.17957574805
0.182518838506
0.185428824852
0.188290290212
0.191088302876
0.193808764442
0.196438663223
0.198966184376
0.201380654636
0.203672160453
0.205830741276
0.207845200939
0.209701395167
0.211379653117
0.212851343243
0.214076537783
0.215003747241
0.215559598553
0.215677025979
0.189705769316
0.189192221309
0.188520197264
0.187788069201
0.186855962306
0.18566644926
0.184111556545
0.182137413175
0.179746503828
0.17698486577
0.173923726603
0.170643557293
0.167224462223
0.163740268499
0.160255515505
0.156824378912
0.153490828874
0.150289492661
0.147246850148
0.144382520383
0.141710496347
0.139240253953
0.136977706192
0.134925998655
0.133086157683
0.13145760783
0.130038576722
0.128826405376
0.127817785695
0.127008950976
0.12639581526
0.125973980306
0.125738491403
0.125683838429
0.125806196285
0.126107438981
0.126585052666
0.127230929286
0.128039457099
0.129004983137
0.13012185302
0.131384500242
0.132787462999
0.134325399621
0.135993103062
0.137785510643
0.139697703965
0.141724891619
0.143862369429
0.146105452135
0.148449373911
0.150889155954
0.153419444649
0.156034326053
0.158727128236
0.161490225266
0.164314861999
0.167191018876
0.170107337248
0.173051121647
0.17600843111
0.178964264039
0.181902831863
0.184807906601
0.187663220479
0.1904528773
0.19316175968
0.195775856399
0.198282427266
0.200670114486
0.202928749771
0.205048708615
0.207020110422
0.20883162705
0.210468215407
0.211907928803
0.213120526229
0.214067335762
0.214676071578
0.214845561127
0.190370301542
0.189627084169
0.188662487015
0.187512000546
0.186137279281
0.184504545288
0.182556119128
0.180269258467
0.177655472492
0.174755809626
0.17162965691
0.16834388877
0.164965143326
0.161554909593
0.158167018937
0.154846779214
0.151631134204
0.148549383386
0.145624150663
0.142872411002
0.140306468855
0.137934837028
0.135762996753
0.133794037701
0.132029186023
0.130468231422
0.129109863897
0.127951935692
0.126991671237
0.126225837362
0.125650836084
0.125262609972
0.125056420322
0.125027376367
0.125173125784
0.125496140061
0.125992749732
0.126653950389
0.127474811517
0.128449938793
0.129573877831
0.130841175339
0.132246429767
0.133784331312
0.135449696702
0.137237497728
0.139142878275
0.141161153743
0.143287785399
0.145518323349
0.147848312488
0.150273159211
0.152787959844
0.155387297354
0.158065016745
0.160813994836
0.163625924837
0.166491139558
0.169398495745
0.172335342271
0.175287584793
0.178239857537
0.18117579769
0.184078405008
0.18693047966
0.18971506245
0.19241590888
0.19501793839
0.197507380805
0.199872091361
0.202101615658
0.204186562268
0.20611807026
0.20788710185
0.209482581137
0.210888486192
0.21208220776
0.21303489845
0.213675199159
0.213893771163
0.190621643074
0.189535729317
0.188272665828
0.186738477077
0.184956563154
0.182925693745
0.180628581442
0.178066231703
0.175259319942
0.172246360194
0.169076970454
0.165805178578
0.162484247928
0.159163286188
0.155885476695
0.152687462237
0.149599455421
0.146645746836
0.143845393247
0.141212954857
0.138759209544
0.136491808144
0.134415853772
0.132534401357
0.130848879641
0.129359438579
0.128065225957
0.126964606082
0.126055352584
0.125334797376
0.12479985951
0.124446812077
0.124271190631
0.124269482591
0.124442442836
0.124789360278
0.125304672669
0.125981886444
0.126815840751
0.127801228856
0.128932693298
0.130204849175
0.13161232962
0.133149836172
0.134812190252
0.136594380744
0.138491601509
0.140499271011
0.14261302553
0.144828677085
0.147142128575
0.1495492411
0.152045653108
0.154626556917
0.157286443992
0.160018834002
0.162816011652
0.165668800397
0.168566397388
0.1714963027
0.174444353236
0.177394879615
0.180330990418
0.183234934121
0.186088604864
0.188874000961
0.191573734963
0.1941717404
0.196653220632
0.199005185334
0.201216929695
0.203279165313
0.205183615408
0.206922774472
0.208488340618
0.209868398631
0.211044849208
0.211997476901
0.212655944935
0.212920183765
0.189890340191
0.188640425821
0.187188904114
0.185363406991
0.183266654981
0.180925044341
0.178357013581
0.175584108193
0.172635236503
0.169547443742
0.166362693191
0.163124358855
0.159874327339
0.156651054761
0.15348853143
0.150415913153
0.147457585555
0.144633477812
0.141959503218
0.139448050503
0.137108480232
0.134947599042
0.1329700943
0.131178920324
0.129575632502
0.128160666865
0.126933564697
0.125893152829
0.125037708365
0.124365093979
0.123872731044
0.12355726074
0.123414611417
0.123442534069
0.123643862405
0.124015918919
0.124551452174
0.125245607751
0.126093375245
0.127089619618
0.128229085553
0.129506436379
0.130916310379
0.132453386613
0.13411245507
0.135888485773
0.137776689803
0.139772563407
0.141871904681
0.144070791573
0.146365510493
0.148752427719
0.151227800391
0.153787531942
0.156426885313
0.159140166726
0.161920405549
0.164759074111
0.167645861428
0.170568562069
0.173513075306
0.176463536815
0.179402641327
0.182311961942
0.185172581493
0.187965576498
0.190672408001
0.193276236995
0.19576131548
0.198113713464
0.200322559723
0.202378505628
0.204273415148
0.206000606953
0.207553347698
0.208922145614
0.210090495104
0.211045822349
0.211717173256
0.212024331148
0.188205467607
0.186921025685
0.185386421914
0.183380151047
0.181078659097
0.178529605231
0.175781144668
0.172872006556
0.169838922242
0.166718780342
0.163548228162
0.160362670969
0.157195231125
0.154076000735
0.151031632167
0.148085200187
0.145256258931
0.142561029299
0.140012670219
0.137621599236
0.135395835322
0.133341342048
0.131462353555
0.129761671464
0.128240925501
0.126900793046
0.125741176652
0.124761348791
0.123960085807
0.123335775451
0.122886359902
0.122609000904
0.122500283223
0.122558938538
0.122788523848
0.123185601
0.123741974988
0.124453517707
0.125315512122
0.126323007043
0.127470840323
0.128753701101
0.13016620276
0.131702966098
0.13335870942
0.135128340866
0.137007045847
0.138990359701
0.141074213086
0.143254935893
0.145529205045
0.147893924603
0.150346031605
0.152882229221
0.155498668393
0.158190585553
0.160951910954
0.163774939643
0.166650024013
0.169565425074
0.17250728283
0.175459677329
0.178405082621
0.181324523076
0.184198425592
0.187007241934
0.189731244775
0.192353216249
0.19485661502
0.197226367836
0.199451603969
0.201522614798
0.203430970757
0.205170274592
0.206734181396
0.208114148471
0.209292789889
0.210263298097
0.210950834137
0.211300776499
0.185777271614
0.184509587066
0.182954110765
0.180859398146
0.178452753978
0.175792552875
0.172949799858
0.169976104163
0.166914904243
0.163803805498
0.160676197205
0.157562041573
0.154488220082
0.151478693035
0.148554585581
0.145734259704
0.143033408463
0.140465191691
0.138040418235
0.135767767786
0.133654037714
0.131704397668
0.129922635972
0.128311386099
0.126872325284
0.125606340651
0.124513664466
0.12359398814
0.122846564621
0.122270271347
0.121863531241
0.121624088578
0.121549392237
0.12163902413
0.121896440894
0.122317871259
0.12289476751
0.123623533418
0.124499718656
0.125518527283
0.126674862163
0.127963406925
0.129378714441
0.130915306351
0.132567782665
0.134330937909
0.136199877162
0.138170121102
0.140237685564
0.142399118204
0.144651472288
0.146992201035
0.149418964031
0.151929334914
0.154520452285
0.157188624746
0.159928831483
0.16273437584
0.165596456103
0.168503980686
0.171443561074
0.174399356372
0.177353911522
0.180287900292
0.183181287074
0.18601449025
0.188766439719
0.191420132063
0.193958465814
0.196364816578
0.19862895852
0.20074046708
0.202690176975
0.204471825222
0.206078314185
0.207500198367
0.208716902766
0.209723967066
0.210439004269
0.210836178898
0.182781018825
0.181558050458
0.180022082916
0.177908213372
0.175475292763
0.172783294766
0.169919230421
0.16694297236
0.16390298278
0.160837828045
0.157779117786
0.154753391604
0.15178338477
0.14888880993
0.146086809405
0.143392213025
0.140817706289
0.138373976913
0.136069874161
0.13391258983
0.131907854579
0.130060136917
0.128372832424
0.126848434441
0.125488679973
0.124294667458
0.123266953008
0.122405640286
0.121710452954
0.121180734101
0.120815307065
0.120612435004
0.120570698245
0.120690956094
0.120975526107
0.12142030109
0.12201708316
0.122762696476
0.123652907788
0.12468303343
0.125848008099
0.127142479463
0.128560907331
0.130097676145
0.131747221825
0.133504171111
0.13536348737
0.137320611608
0.139371581448
0.14151310821
0.143742585527
0.146058001805
0.148457759695
0.150940351588
0.153503968808
0.156146133458
0.158862989613
0.161649034991
0.164496494057
0.167395070282
0.170332156768
0.173292083993
0.176257891688
0.179210221978
0.182128691841
0.184994603111
0.187785073584
0.190484154686
0.193074633661
0.195537669317
0.197865974412
0.200048107715
0.202072709016
0.203933768182
0.205622512356
0.207125846448
0.208417733905
0.209490831958
0.210252795899
0.210708553158
0.179363672376
0.178206477235
0.176720336608
0.174638781634
0.172238685899
0.169575940474
0.166747962474
0.163818836992
0.160840322685
0.157851769121
0.154883907551
0.151961272369
0.149103997487
0.146328978167
0.143650576949
0.141081040906
0.138630765479
0.136308493431
0.134121495311
0.132075747617
0.13017610815
0.1284264804
0.126829960119
0.125388960275
0.124105311371
0.122980335776
0.122014907866
0.121209529948
0.120564376602
0.120079222257
0.11975319187
0.11958491805
0.11957448014
0.119725475832
0.120036403675
0.120502073259
0.121117475371
0.121879121498
0.122782841882
0.12382399234
0.124997501967
0.126297955582
0.127719693534
0.129256931217
0.130903899505
0.132655004968
0.134505005468
0.13644918995
0.138483541271
0.140604861158
0.142810828387
0.14509992437
0.147471291607
0.149924373528
0.152458411989
0.155072296756
0.157763383524
0.16052753349
0.163358179819
0.166245879657
0.169179262729
0.172142848875
0.175120670283
0.178093734959
0.181041065995
0.183945943324
0.186782923669
0.189538920683
0.192197724839
0.194736796875
0.197156809177
0.19944441817
0.201582045143
0.203564138702
0.205379316839
0.207009022378
0.208422484685
0.209603446732
0.210447563436
0.210984533677
0.175662345522
0.174583800882
0.17316818962
0.171155576656
0.168830522597
0.166241535723
0.163492218201
0.160647707124
0.157761566056
0.154873535152
0.152013916986
0.149206120989
0.146468710722
0.143816763471
0.141262740295
0.138817034275
0.136488335649
0.134283903134
0.132209788247
0.130271030815
0.128471829095
0.126815681761
0.125305500841
0.123943697786
0.122732244215
0.121672709926
0.120766293369
0.120013875171
0.119416054902
0.118973024047
0.118684213218
0.118548613202
0.118567504256
0.118746302552
0.119081624826
0.119567251172
0.120200238705
0.120977044737
0.121893592874
0.122945279561
0.124127021859
0.125433333367
0.126858423206
0.128396319132
0.130041017603
0.13178666146
0.133627743157
0.135559325536
0.137577253062
0.13967832558
0.14186044045
0.144122500298
0.146464352863
0.148886438769
0.151388916161
0.153972241781
0.156634917657
0.159374298522
0.16218526014
0.165059120512
0.167986353956
0.170951502866
0.173939852356
0.176933047167
0.179908994067
0.182854536101
0.185741350379
0.188562904895
0.191306298513
0.193941508644
0.196479726411
0.198903849713
0.201188911128
0.203331139367
0.205317074351
0.207125122437
0.208720979697
0.210069576766
0.211053607382
0.211709191058
0.171798679077
0.170803967948
0.16947065906
0.167550923698
0.165328986423
0.162844211239
0.160203234673
0.157469898584
0.154698369184
0.151928294094
0.149189683682
0.146505292393
0.143892737044
0.141365927851
0.138936036129
0.136612144951
0.134401708652
0.13231089933
0.130344881037
0.128508028817
0.126804098949
0.12523635335
0.123807643494
0.12252046201
0.121376968905
0.120378999631
0.119528072471
0.118825422597
0.11827202895
0.117868468485
0.117614547301
0.117509727332
0.11755604232
0.11775938755
0.118116581632
0.118620994417
0.119270259403
0.12006103346
0.120989369788
0.122050722019
0.123240001873
0.124551656003
0.125979764386
0.127518163384
0.129160600667
0.130900925585
0.132733314528
0.134652534275
0.136654211321
0.138735027496
0.140893035286
0.143127458588
0.145438752182
0.147828489277
0.150297377958
0.152847740954
0.155479037742
0.158190174052
0.160977810648
0.163833645583
0.166750486008
0.169712329437
0.172705685409
0.175713310066
0.178712205065
0.181696623799
0.18463714836
0.187532095927
0.190375428747
0.193130361028
0.195799889229
0.198372021114
0.200834167304
0.203178023616
0.205388535621
0.20743963008
0.209289150968
0.210876955217
0.212072557962
0.212891162201
0.16787247477
0.166961677243
0.165715889799
0.163902993664
0.161800994695
0.159439523587
0.156925944709
0.154321133857
0.151678929656
0.149038389046
0.146429171591
0.143873564244
0.141388569331
0.138987324806
0.136680122518
0.134475134162
0.132378950156
0.130396992612
0.128533834001
0.126793436394
0.125179320119
0.123694670419
0.122342393717
0.12112513745
0.120045285827
0.11910494421
0.118305931425
0.117649799159
0.11713784414
0.116770972682
0.116549407137
0.116473182788
0.116544886636
0.11677041905
0.11714729332
0.117668661377
0.118332509071
0.119135689649
0.120074383745
0.121144105597
0.122339768725
0.12365576428
0.125086057239
0.126624303833
0.128264005588
0.129998706974
0.131822234979
0.133728996781
0.135714348973
0.137774701777
0.139908217001
0.142114331945
0.144393865825
0.146749888563
0.149182959931
0.15169771353
0.154294319936
0.156973073999
0.159732759727
0.162564504933
0.165463606954
0.168412952556
0.171400769066
0.174414885913
0.177431444976
0.180454249435
0.183463251762
0.18643214454
0.1893588493
0.192226587695
0.195032055494
0.197769436517
0.200432116656
0.20301321959
0.205498688107
0.207859939379
0.210045464851
0.211964975421
0.213467270897
0.21449564538
0.163962178027
0.163132351493
0.161974933809
0.160275522226
0.158301827595
0.156073999855
0.153698499372
0.151232124963
0.148727703102
0.146223238836
0.143747881192
0.141323462976
0.138966514735
0.136689623756
0.134502470967
0.13241260753
0.130426054066
0.12854776468
0.12678197786
0.125132466666
0.123602699601
0.122195926151
0.120915204818
0.119763392806
0.118743114745
0.117856729547
0.117106318084
0.116493696033
0.116020402345
0.115687569738
0.115495792236
0.115445797458
0.115540746459
0.115786159334
0.116180472842
0.116716643145
0.117393019055
0.118206652104
0.119153842992
0.120230162192
0.121430528833
0.12274929158
0.12418032165
0.125717118579
0.127352955589
0.129081080871
0.130894966301
0.132788590003
0.134757057836
0.136796286774
0.138904531552
0.141081391571
0.143327533343
0.145648279365
0.148043018763
0.150519159787
0.153077384526
0.155718564715
0.158443809221
0.16124227514
0.164112038738
0.167038763439
0.170010163828
0.173029026275
0.176069881116
0.179115659715
0.182158876328
0.185183648511
0.188183576971
0.191151102793
0.194084963799
0.196985728449
0.199854405077
0.202690347098
0.205485144884
0.208213361372
0.210819897786
0.213192463762
0.215150928855
0.216455636705
0.160128061879
0.159374513608
0.158303427256
0.156718944269
0.154875816189
0.152785481284
0.150552374821
0.148228553583
0.145865359539
0.143499354083
0.141158983661
0.138865549177
0.136635142294
0.13447991378
0.132409108404
0.130429870416
0.128547882741
0.126767863532
0.125093933519
0.12352986489
0.122079225865
0.120745440359
0.119531786383
0.118441357154
0.117477005657
0.116641298963
0.115936513897
0.115364655744
0.11492740977
0.11462596062
0.11446110672
0.114434631391
0.114551113686
0.114814420532
0.115223668355
0.115772159123
0.116458666613
0.117280442792
0.118233879913
0.119314582756
0.120517469741
0.121836854358
0.123266538051
0.124799895235
0.126430000875
0.128149829497
0.129952537932
0.131831557183
0.133781897619
0.135798666935
0.137880212813
0.140026441159
0.142236965669
0.144520491788
0.146874110668
0.149307931397
0.151823168193
0.154419409521
0.157100436929
0.15985585523
0.162683198371
0.165586385759
0.16854246827
0.171540712812
0.174571439975
0.177619545886
0.18067492687
0.183727499216
0.18677259334
0.189808969266
0.192840733408
0.195875954631
0.198925073832
0.201997419665
0.20509527195
0.208203425212
0.211272908186
0.21418319201
0.21672306104
0.218482254343
0.156415535453
0.155732588253
0.154743906796
0.153272180257
0.151557606812
0.14960394974
0.14751286808
0.145331349155
0.143108951179
0.140880484347
0.138673512842
0.136508694486
0.134401661805
0.132364183032
0.130405182423
0.128531555668
0.126748829179
0.125061669902
0.123474252486
0.12199049392
0.120614173194
0.119348960653
0.11819838617
0.117165773835
0.116254165968
0.115466268916
0.11480447158
0.114270878953
0.113867222666
0.113594573046
0.113453729472
0.113448079172
0.113585723493
0.113865446479
0.114285276381
0.114843035034
0.11553694157
0.116364260204
0.117321378323
0.118403882351
0.119606669858
0.120924016531
0.122349676832
0.123876935607
0.125498711145
0.12720771161
0.128996908038
0.130858933782
0.132789073856
0.134781226798
0.136833807197
0.138947493173
0.141119590904
0.143363262537
0.145672429331
0.148058479226
0.150523852808
0.153066739844
0.15569142448
0.158402897796
0.16118816309
0.164040368119
0.166952964471
0.169912751457
0.172907908985
0.175926026106
0.178957634466
0.181995996354
0.185039317284
0.188091156757
0.1911613065
0.194265231557
0.197422950029
0.200654452753
0.203974227877
0.207378731479
0.210818080475
0.2141242126
0.217026992414
0.219258768198
0.152857841706
0.152239402613
0.151328061745
0.149964505869
0.148373594639
0.146552559332
0.144599798493
0.142557149984
0.140472224695
0.13837786046
0.13630059686
0.134260340025
0.132272226678
0.13034766768
0.128495346904
0.126722030325
0.125033227364
0.123433696063
0.121927794651
0.120519690331
0.119213446738
0.118013019942
0.116922196365
0.115944502651
0.115083113009
0.114340791605
0.113719927511
0.113222604562
0.112850496146
0.112604516629
0.112485475456
0.112497828279
0.112651185347
0.112943745007
0.113372428998
0.113936848753
0.114635439347
0.115465569644
0.116423601762
0.117505053912
0.118704783396
0.120017014626
0.121435475309
0.122953393112
0.124563585593
0.12625843571
0.128031018358
0.129872702916
0.131779677362
0.133744264148
0.135764748458
0.137843228544
0.139973329017
0.142173024806
0.144433018151
0.146763871248
0.149170458823
0.151657626724
0.154227433621
0.156871592359
0.159592869656
0.162381647338
0.165228175633
0.168120261878
0.171045722957
0.173992990786
0.176953060068
0.179920619521
0.182895601675
0.185884189445
0.188899618307
0.191961805642
0.195096721315
0.198329651104
0.201680454824
0.205141157374
0.208607120547
0.211799071296
0.215117868599
0.219197911763
0.149478545714
0.14891845487
0.148078783024
0.146817294575
0.145343318005
0.143648696669
0.141828277597
0.139918846074
0.137966005836
0.136000482327
0.134047696319
0.132126715693
0.130252149405
0.128435065794
0.126683967113
0.125005578364
0.12340549499
0.121888667576
0.120459724329
0.11912314398
0.117883305262
0.116744447867
0.115710581908
0.114785376042
0.113972051255
0.113273326817
0.112691476329
0.112228436943
0.11188572639
0.111664145964
0.111564683604
0.111592501816
0.111757472081
0.112058869981
0.112493351615
0.113061422433
0.11376178898
0.114591862581
0.115547898948
0.11662525394
0.117818724724
0.119122450619
0.12053014761
0.122034995852
0.123629809569
0.125306446236
0.127058626943
0.128875807761
0.13075581503
0.132689232174
0.134673626396
0.136713026469
0.138796147813
0.14094487877
0.143150724713
0.14542086014
0.147771557134
0.150186803536
0.152682710099
0.155252921713
0.157893478476
0.160595699253
0.16334861259
0.166139402229
0.168954854053
0.171782628963
0.174612831196
0.177439365175
0.180261242478
0.183083536162
0.185917917309
0.188781809074
0.191697799533
0.194682091254
0.197742903159
0.200824896275
0.203668450241
0.206302614648
0.209627432026
0.215657619383
0.146293563072
0.145785847575
0.145011947901
0.143845563103
0.142480727762
0.140904979294
0.139209463237
0.13742613172
0.135598599023
0.133755409857
0.131920821506
0.130113007048
0.128346030442
0.126630631404
0.124975175592
0.123386411208
0.121870090113
0.120431418956
0.119075342003
0.117806671077
0.11663009384
0.115550100974
0.11457087219
0.113696147477
0.112929108753
0.112272328076
0.11172785022
0.111297334412
0.110982003318
0.110782494225
0.110700036421
0.110740311077
0.110912980854
0.111219222133
0.111655892699
0.112224328563
0.11292340712
0.113750452836
0.114701499235
0.115771580483
0.116955426088
0.118247027336
0.119640097315
0.121127732532
0.122702931469
0.124356683416
0.1260841292
0.1278721472
0.129720610218
0.131618438754
0.133561258686
0.135555548238
0.137587737665
0.139675347914
0.141831925288
0.144033053
0.146307164541
0.148648467411
0.151060430133
0.153539487674
0.156079371842
0.158670171541
0.161299091522
0.163951421091
0.166611787554
0.169265454707
0.171899654805
0.174504756014
0.177075179778
0.179609830187
0.182111732804
0.184585578656
0.187035045682
0.189439844934
0.19177668627
0.193920624962
0.195458574101
0.195529329264
0.193943157701
0.195756271795
0.143312966604
0.142851955257
0.142137945802
0.141059302046
0.13979529889
0.138330149938
0.136751252048
0.135086024225
0.133376165009
0.131648030189
0.129924714
0.12822346883
0.126557814034
0.124938177389
0.123372823194
0.121868566557
0.120431358074
0.11906669174
0.117779841102
0.116575942579
0.115459962181
0.114436591551
0.113510117155
0.112684283164
0.111962157271
0.111346068694
0.110837715163
0.110438343698
0.110148698818
0.109969060292
0.109900889074
0.109950323781
0.11012626983
0.110432802545
0.110867602856
0.11143288295
0.11212748499
0.112948441715
0.113891451395
0.114950967133
0.116121676684
0.117397328114
0.118771646828
0.120237587086
0.121788668152
0.123414613395
0.125112594192
0.126866426766
0.128677531325
0.130533708755
0.132428302811
0.134367738449
0.136354262702
0.138378626148
0.140460541876
0.142593352007
0.144786677346
0.147040817331
0.149355450701
0.151726024255
0.154144007913
0.156597097196
0.159069817914
0.161544468565
0.164002229614
0.166424268825
0.168792719998
0.171091371174
0.173305900566
0.17542340468
0.177430803745
0.179310689505
0.181034741224
0.182521804486
0.183705037112
0.184087246525
0.181971151976
0.174488381783
0.155447662263
0.0996231426272
0.140542333263
0.140122745905
0.139462926114
0.138464584126
0.137292972954
0.135929848686
0.134458888166
0.132903325946
0.13130305733
0.129682288891
0.128062990015
0.126461493595
0.124890791391
0.123361019392
0.121880368414
0.120455747675
0.11909332668
0.117798893797
0.116578042441
0.115436207354
0.114378590832
0.113410029279
0.112534852384
0.111756749565
0.111078620978
0.110502466721
0.110029487266
0.109660339489
0.109395030609
0.109233038185
0.1091761194
0.109231711431
0.109406238799
0.109707623263
0.11013597018
0.110694336038
0.111381145156
0.112192804072
0.113124632592
0.114170112464
0.115323968376
0.116579637748
0.117930931093
0.119370631146
0.120893106749
0.122486418543
0.124149596707
0.125863097897
0.127628633171
0.129435496507
0.131280053224
0.133164888596
0.135085121802
0.137045321532
0.139051694912
0.141104707018
0.143208468661
0.14536330774
0.147566375374
0.149810693548
0.15208489661
0.15437350464
0.156657524489
0.158915287324
0.161123345868
0.163257239964
0.16529194746
0.167201811961
0.168959698006
0.170535041051
0.171890391377
0.172975954524
0.173724371884
0.1740356554
0.173961201721
0.171753125121
0.165327735709
0.152014694103
0.125297326875
0.074606351744
0.13798391912
0.137600876417
0.136989816132
0.136064471856
0.134976939451
0.133707262492
0.132335482287
0.130881022136
0.129382111652
0.127860884056
0.126338251278
0.124829649586
0.123347573768
0.121901891169
0.120500741565
0.1191511435
0.11785949036
0.116631857246
0.115474137175
0.114392032623
0.113390943372
0.112475803189
0.111650928549
0.110919907026
0.110285444592
0.109749151021
0.109311506983
0.108972262687
0.108730482692
0.108584397184
0.10853600103
0.108595915297
0.108764625846
0.109052331587
0.109468701893
0.110016069198
0.110691573804
0.111490419906
0.112407667589
0.113435377409
0.114568465499
0.115800108566
0.117124286954
0.118533518531
0.120022846347
0.121577949384
0.12319847038
0.124865044644
0.12657551286
0.128334544171
0.130118811131
0.13194011198
0.133793720194
0.13568106126
0.137605846669
0.139569822188
0.141574371068
0.143617886879
0.145694826094
0.147795109346
0.149903925277
0.152002005409
0.154066195276
0.156070151031
0.15798496264
0.159779483863
0.161420131356
0.162869860641
0.164085909359
0.165015653765
0.165589432331
0.165708051663
0.165220479169
0.163876377491
0.161244508684
0.156301033099
0.147111113029
0.131638429853
0.105321779998
0.0632185327738
0.135637488157
0.135286527864
0.13471912516
0.133859746593
0.132848272346
0.13166366133
0.130382445468
0.129020616535
0.127614890572
0.126185428619
0.124752173434
0.123329703084
0.121930056145
0.120562856378
0.119236211546
0.11795725735
0.116732608441
0.115568614405
0.114471449427
0.113447063182
0.112501035081
0.111638374131
0.110863344495
0.11017938353
0.109589014301
0.109093514857
0.108692463996
0.108384149461
0.108166819193
0.108037864356
0.107996951942
0.108053378701
0.108207887939
0.108474639784
0.108873349872
0.109405415105
0.110065857475
0.110847976008
0.111746925088
0.112753035293
0.113861544513
0.115065455663
0.11635865707
0.117732686099
0.119182082152
0.120691919896
0.122256741871
0.123877406804
0.125530337409
0.127226458264
0.128951176051
0.130704236559
0.132483909707
0.134290806751
0.136126910244
0.137993104567
0.139888482427
0.141808784476
0.143745319209
0.145684436139
0.147607442277
0.14949090601
0.151307179645
0.153024934239
0.154609483644
0.156022656606
0.157221941996
0.15815855406
0.158773900708
0.158993619214
0.15871773134
0.157804259401
0.156041342377
0.153097134067
0.148433273115
0.141103643217
0.129596616316
0.112010963444
0.0852074854638
0.0482784549897
0.133501044965
0.133178090962
0.13264958759
0.13184949169
0.13090644393
0.129798836252
0.128599848036
0.127322412697
0.126001891296
0.12465658988
0.123305583454
0.121962640084
0.120639389199
0.119345236748
0.118088275367
0.116875762451
0.115714529749
0.114611192983
0.113572200286
0.112603749919
0.111711615353
0.110900905153
0.110175831116
0.109539658887
0.108994811207
0.108542523582
0.108181415158
0.107906982958
0.107716068191
0.107607353143
0.107573102265
0.107618517192
0.107747773061
0.107982322018
0.108357294581
0.108869705181
0.109511054277