/*--------------------------------*- C++ -*----------------------------------*\
| =========                 |                                                 |
| \\      /  F ield         | OpenFOAM: The Open Source CFD Toolbox           |
|  \\    /   O peration     | Version:  v1806                                 |
|   \\  /    A nd           | Web:      www.OpenFOAM.com                      |
|    \\/     M anipulation  |                                                 |
\*---------------------------------------------------------------------------*/
FoamFile
{
    version     2.0;
    format      ascii;
    class       volScalarField;
    location    "600";
    object      pa;
}
// * * * * * * * * * * * * * * * * * * * * * * * * * * * * * * * * * * * * * //

dimensions      [0 2 -2 0 0 0 0];


internalField   nonuniform List<scalar> 
6400
(
0.659972966507
0.591481336562
0.452759990204
0.362353454924
0.361337726477
0.432443410148
0.574729501204
0.727591362013
0.87086134495
1.00453120324
1.12636602101
1.2317477629
1.31791111569
1.3846182838
1.43301155629
1.46476209461
1.4817611879
1.48599453171
1.47942068654
1.46386838329
1.44097483111
1.41216742304
1.37866715217
1.34150688385
1.30155263123
1.25952959594
1.21604575404
1.17161661991
1.12668627907
1.08165143273
1.03688993003
0.992825522426
0.950050182458
0.909490738444
0.871628084402
0.831963392311
0.769604601369
0.676914136283
0.558082309812
0.423703594162
0.281450463513
0.135159168344
-0.0132972998813
-0.162571770924
-0.311410756379
-0.458656330725
-0.603261485018
-0.744257279554
-0.880711808962
-1.01170890161
-1.13633653816
-1.2536835256
-1.36283727699
-1.46289020619
-1.55295145868
-1.63217091994
-1.69977090574
-1.75509002266
-1.79763233454
-1.82712276418
-1.84355910329
-1.84725855854
-1.83888818717
-1.81947726946
-1.79040328145
-1.75335431621
-1.71026265337
-1.66322280162
-1.61437638234
-1.56581482926
-1.51938092418
-1.47664443157
-1.43833608578
-1.40492518626
-1.37421718674
-1.34647925092
-1.31306119913
-1.28917383195
-1.24906470429
-1.30445770391
0.466826662824
0.338059090735
0.271110647883
0.239596959514
0.321925690338
0.606341995111
0.992726850786
1.46757467462
2.02697797133
2.65774508161
3.34221502504
4.06230299132
4.80192703392
5.54774802194
6.28891916374
7.01669402018
7.72416140085
8.40602247567
9.05834251661
9.67829363228
10.2639209337
10.8139486474
11.3276209794
11.8045758784
12.2447420517
12.6482607252
13.0154225991
13.3466231566
13.642327229
13.9030464413
14.1293216175
14.3216937669
14.480716108
14.6072956615
14.7056777247
14.7925092814
14.8996803424
15.0132086618
15.105910384
15.1674617807
15.1969392724
15.1940735728
15.1577701658
15.0867183303
14.9797512868
14.8358625432
14.6541643169
14.4338940032
14.1744522434
13.8754455234
13.5367290642
13.1584522518
12.741112124
12.2856133065
11.7933355525
11.2662032927
10.7067541786
10.1181962676
9.50444568076
8.87013119806
8.22055624777
7.56160783415
6.89960915198
6.24111632104
5.5926689828
4.96050855184
4.35028705952
3.76678222439
3.21365420541
2.69322350011
2.20637857026
1.75237477459
1.32919357121
0.932839439005
0.560059377975
0.203523442095
-0.129697519586
-0.453858509328
-0.668821497244
-0.946603819076
0.332027699138
0.263423093059
0.279808145847
0.295526785826
0.363818746416
0.514345863829
0.724994605476
0.989116796198
1.29608839689
1.62971827719
1.97469153972
2.31862967016
2.65164855761
2.96615553348
3.25676162522
3.51997474755
3.75380103494
3.95739302792
4.13076048691
4.27452525602
4.38971943697
4.47762775811
4.53967238395
4.57733038176
4.59207834982
4.58535588631
4.55854556273
4.51296262231
4.44985429643
4.37040049599
4.27572192294
4.16685724181
4.04466086668
3.90888486663
3.75509982136
3.56811978911
3.35380355765
3.13716029882
2.93083954539
2.73277487732
2.5409988337
2.35629949284
2.18036589193
2.01483763875
1.86119543465
1.72075370252
1.59458337115
1.48342737592
1.38764384885
1.30717227901
1.24151020157
1.18969981867
1.1503242211
1.12151803412
1.10099293953
1.08608415323
1.07381956287
1.06101780005
1.04441497778
1.02082143287
0.987300837387
0.941363203847
0.881154419004
0.805624967363
0.714656891887
0.609131842986
0.490930328281
0.36285019818
0.228469330753
0.091899494441
-0.0424152697189
-0.170254403
-0.287553098247
-0.392396162263
-0.482019103479
-0.562762254229
-0.620988355118
-0.688975145829
-0.601684573221
-0.799802799178
0.057938036775
0.223120314952
0.177733496515
0.160299070668
0.322400400348
0.556796237603
0.821768109266
1.12554364273
1.46469634811
1.82684342393
2.20244913974
2.58519714644
2.96976305124
3.35149470402
3.72676552381
4.09296399712
4.44823917592
4.79127547561
5.12114666408
5.43721184594
5.73903078537
6.0263005137
6.29881110431
6.55641885978
6.79902920398
7.02658823186
7.23907726758
7.4365120092
7.61893863152
7.78643360012
7.93907712289
8.07695624437
8.20007468202
8.30897987129
8.40570797958
8.49685503333
8.56053486798
8.59216363078
8.59871287767
8.58078068415
8.53605297084
8.46350181093
8.36326857806
8.23578581329
8.08158171686
7.90140114334
7.69628821048
7.46759739335
7.21698666186
6.94640782561
6.65809041317
6.35451080766
6.03834818298
5.71242444487
5.3796307397
5.04283786939
4.7047954577
4.36802191455
4.03469606365
3.70655926322
3.38484412588
3.07024137513
2.76291845105
2.46259375847
2.16866778317
1.8803985808
1.59711224599
1.31841720688
1.04443737227
0.775976085562
0.514807514175
0.263568449992
0.0266305297595
-0.191753804221
-0.38221794274
-0.544431311807
-0.646106933039
-0.729735667477
-0.540494451759
-0.795290568813
-0.370601309877
0.420537155004
0.221782802242
0.226588953228
0.554245881599
0.869784279366
1.13760109034
1.41010961069
1.69651974148
1.98864590993
2.2825434061
2.57670887177
2.86870438235
3.15534075254
3.43358811447
3.70087597627
3.9550444809
4.19428062086
4.41709578395
4.62230581859
4.80899968344
4.97650221801
5.12433973645
5.25220890171
5.35995013956
5.44752343057
5.51498824324
5.56248477912
5.59021932684
5.59844619758
5.58746074394
5.55756279148
5.50907120526
5.44201904396
5.35641647172
5.25447977705
5.14911511762
5.04322497121
4.93905854468
4.83767211787
4.73861443091
4.64141498872
4.5459610271
4.45209566361
4.35938540994
4.26714180159
4.1744865078
4.0803886333
3.98369801465
3.8831964247
3.77766306385
3.66594810857
3.54704727525
3.42017503145
3.28482977395
3.14084628822
2.98842670762
2.82814453517
2.66091465717
2.48792829512
2.31055399879
2.13021414497
1.94825043809
1.76579780124
1.58368699742
1.40239201512
1.22203926214
1.04246616856
0.863363151649
0.684393141523
0.505536405454
0.326989784409
0.150439359398
-0.0230712974139
-0.185669258266
-0.341058113256
-0.448320984627
-0.570658309919
-0.342418658494
-0.754914476655
-0.682922324849
1.00577581855
0.472560746298
0.520514364125
0.949344346909
1.25240706746
1.46613738916
1.68071995598
1.90774432023
2.14083429498
2.37970485314
2.62515331111
2.87575705456
3.12880761373
3.38148563474
3.63123388539
3.87578307878
4.11315168011
4.34165707647
4.55991200581
4.76680129914
4.96145029202
5.14319248149
5.31154084435
5.46616255052
5.60685837725
5.73354559594
5.8462451471
5.94507144949
6.03022545164
6.10199241283
6.16075042847
6.20702144302
6.2415307835
6.26479131631
6.27197197178
6.259066727
6.22592795688
6.17331700599
6.1021256532
6.01293149626
5.9063713188
5.78348685622
5.645650332
5.49438812662
5.33129430547
5.15798930014
4.97606578222
4.78702456846
4.59221807102
4.392810916
4.189758001
3.98380208386
3.77549115911
3.56521689526
3.35327103426
3.13991620866
2.92546298267
2.71034429322
2.49517479069
2.28078420697
2.06821412989
1.85867452791
1.65346144695
1.45384899182
1.26096985963
1.07571677959
0.898662490028
0.730066729503
0.569854502442
0.41787325246
0.273587750886
0.137452880795
0.00794534852633
-0.109301050676
-0.22541289144
-0.295656985493
-0.41500691456
-0.0990891422194
-0.675549136693
-1.01309360738
1.86116219294
0.846963825511
0.943631842152
1.38170349048
1.5984388092
1.73136641082
1.88053540395
2.04829618061
2.22762630254
2.41890137243
2.6222148761
2.83523128743
3.05460405657
3.27699216557
3.49931187416
3.71875786584
3.93281706835
4.13928243338
4.33624902767
4.52209467136
4.69545341708
4.85518838853
5.0003660448
5.13023331378
5.24419726305
5.34180797095
5.42274362
5.48679843968
5.53387172136
5.56395942831
5.57713976319
5.57355493346
5.55340835803
5.5174690272
5.47030103986
5.41410471723
5.34986002137
5.27859210227
5.20113758157
5.11781787736
5.02855382454
4.93314096923
4.83136095401
4.72297705699
4.60774713443
4.48547052816
4.35603304101
4.21943288089
4.07579130823
3.92535164554
3.7684681458
3.60558548871
3.43721273913
3.26389611183
3.08619625194
2.90467475416
2.71989445195
2.5324354469
2.34292583845
2.15208230447
1.96075061767
1.76993486385
1.58080201407
1.3946566684
1.21287866314
1.03684840434
0.867841507552
0.706982539416
0.555130764152
0.413077991881
0.281047157246
0.160194490504
0.0488161873869
-0.0467495332335
-0.141913580034
-0.18398399295
-0.300717297618
0.128479969883
-0.607986889942
-1.34994456312
2.954302964
1.2619979337
1.40130151333
1.76449903175
1.86231118795
1.92177815282
2.02123388169
2.14806139951
2.29389113669
2.45802174316
2.63871696832
2.83249017254
3.0355008978
3.24415806476
3.45519284261
3.66564869658
3.87288555662
4.07458128555
4.26872093453
4.45357715161
4.62768703365
4.78982848453
4.93899796357
5.07439025469
5.19538089653
5.30151121022
5.39247592504
5.46811363899
5.52839816859
5.57343631007
5.60345482799
5.61882257725
5.61993852747
5.60721277997
5.57963806525
5.53676975811
5.47907849854
5.407441743
5.3228846429
5.22642120421
5.11904242175
5.00178103778
4.87571568953
4.7419054253
4.60132297551
4.45481983076
4.30311418219
4.14679132229
3.98631543647
3.82205356549
3.65430847134
3.48335522658
3.30947607967
3.13298916843
2.95426782423
2.7737490701
2.59193231669
2.40937220101
2.22667004915
2.04447144485
1.86347105138
1.68442720639
1.50817690046
1.33564931924
1.16785252196
1.00586074381
0.850741772873
0.703534379
0.565106402705
0.436354506379
0.317546550652
0.209992718446
0.111528993405
0.0292971892385
-0.0559105955176
-0.0820996047867
-0.211929692225
0.330236440863
-0.566619385783
-1.6830538234
4.25607393706
1.65726070527
1.85591216804
2.08967062447
2.07315363685
2.08081987496
2.14752266502
2.24786389834
2.37295952056
2.52039536384
2.68657502796
2.86713251976
3.05794279314
3.25530732574
3.45589339026
3.65669701718
3.85503074035
4.04851122465
4.23504242896
4.4127964305
4.58019355479
4.73588284085
4.87872359922
5.00776866559
5.12224959571
5.2215638381
5.30526390212
5.37304802379
5.42475303402
5.46034767851
5.47993188674
5.48374294956
5.47223047027
5.44627328387
5.40715731731
5.35561934925
5.2923601167
5.21813161722
5.13363913142
5.03948808722
4.93620616371
4.82430855838
4.70434681269
4.5769168573
4.44264593631
4.30217716034
4.15615298311
4.00519470655
3.84988114424
3.69073247814
3.52820394417
3.36269129489
3.19454782301
3.02411048245
2.85173091942
2.67780577392
2.50280035471
2.32726307744
2.15182605567
1.97719985274
1.80416009262
1.63353975026
1.46621902337
1.30313323012
1.14525177331
0.993596328849
0.849167571797
0.712953733075
0.585758159169
0.46843636261
0.361072361
0.264796604765
0.176662188041
0.104201218332
0.0241298414298
0.00678953450356
-0.14726770032
0.504209922859
-0.545526708424
-1.98138270055
5.734976253
1.98402409447
2.29126485657
2.36523061508
2.25899411646
2.23541958488
2.2806084593
2.3634515796
2.47530680496
2.61185226495
2.7680068087
2.9388682848
3.12020053326
3.30832007991
3.4999570875
3.69219111734
3.88241682837
4.06831724718
4.24784121386
4.41918430783
4.58077189027
4.73124368702
4.86943975298
4.99438798602
5.10529319913
5.20152763541
5.28262301642
5.34826349694
5.39828074118
5.43264949666
5.45148807615
5.45505924808
5.4437477975
5.41798758736
5.37796363336
5.3241363787
5.25719947376
5.17799768231
5.08745817116
4.98653170912
4.87615856872
4.75725918014
4.63073079506
4.49743648338
4.35819077441
4.21375075978
4.06481329446
3.91201412282
3.75592657826
3.59706041084
3.43586249917
3.27272117112
3.10797622176
2.94193491256
2.77489429753
2.60716736954
2.43910839818
2.27113782879
2.10375263105
1.93753625512
1.77314960412
1.61132921838
1.45286621896
1.29862130989
1.1494808632
1.00640997463
0.870346705542
0.742246829627
0.622823936062
0.51291458391
0.412400086539
0.322108759492
0.2383648261
0.169025363465
0.0875212682813
0.0699252408141
-0.112820675932
0.644068249783
-0.548420887685
-2.2237672422
7.34021723517
2.20556944697
2.71022849456
2.60821068813
2.44375527787
2.40201329828
2.43096723895
2.5008319559
2.60284038241
2.73067528526
2.87814053849
3.03999564804
3.21195787621
3.39040869447
3.57220146165
3.75456131494
3.93502358143
4.11139137455
4.28170674541
4.44423060577
4.59742789614
4.73995565843
4.87065314415
4.98853326728
5.09277534441
5.18271841276
5.25785589056
5.31782910203
5.36242507182
5.39156448307
5.40531449866
5.40384775952
5.38761547599
5.35736020813
5.31351686591
5.25662526053
5.18733544828
5.10637338854
5.01451475856
4.91256866473
4.80136959614
4.68177612314
4.55466819695
4.42093502284
4.28145462691
4.13707176769
3.98857890349
3.83670156202
3.68208845914
3.52530718879
3.36684574324
3.20711968689
3.04648560419
2.88525823383
2.72373168851
2.56220263877
2.40098904749
2.24045664021
2.08102118508
1.92316923104
1.76744339631
1.61445489265
1.46484468858
1.31933460717
1.17864757444
1.04357417939
0.914884955013
0.793378252562
0.679408759811
0.573700942354
0.475705298979
0.385441487956
0.298659946406
0.223065325583
0.132358589125
0.0970127137335
-0.104322983558
0.749311042422
-0.598558594038
-2.3935725191
9.01313654554
2.30498142477
3.12766108047
2.83231585749
2.63904547753
2.58382353766
2.59850895809
2.657818748
2.75155015937
2.8714522207
3.01049514304
3.16320684499
3.3253072099
3.49329871437
3.66421930712
3.83549869037
4.00486728129
4.17029886274
4.32997578287
4.48226836818
4.62572232595
4.75905071665
4.88112828654
4.99098720301
5.0878134689
5.1709434516
5.23986105304
5.29419277465
5.33370745325
5.35830165253
5.36802211468
5.36300596245
5.34372314163
5.31070788953
5.26423396025
5.20481661788
5.13312540137
5.04992272023
4.95603336733
4.85232519926
4.73969336086
4.61904923021
4.49131257102
4.35740215834
4.21822234032
4.07464664351
3.92750053935
3.77754504226
3.62546278707
3.47184892016
3.3172085592
3.16196081099
3.0064533826
2.85098061029
2.69580726591
2.54119454288
2.38741181054
2.23477299135
2.08361996733
1.93435882647
1.78742425636
1.64332580237
1.50255555403
1.36566465978
1.23328786489
1.10589800585
0.984061398748
0.868418948038
0.75836831145
0.654213281656
0.554849234916
0.458587305397
0.361397498754
0.268673374894
0.160131969341
0.0827508831725
-0.0958923333521
0.819294798128
-0.729612453141
-2.48292295842
10.6936612767
2.28315282848
3.56118849689
3.04400794608
2.84798555025
2.77844817243
2.78040272662
2.83096263737
2.91726073208
3.02941693021
3.15978008529
3.30273894703
3.4540911357
3.61053129505
3.76934230082
3.92820601757
4.08508556076
4.23815560962
4.38576402213
4.52641196292
4.65874466783
4.78154757313
4.89374520068
4.99440093884
5.08271714837
5.15803462199
5.21983228148
5.26772400918
5.30146037075
5.32091262275
5.32610269426
5.31712604508
5.29449973518
5.2587571723
5.21015697264
5.14916816582
5.07641015294
4.99258627908
4.89846194029
4.7948598476
4.68265202756
4.56274769822
4.43608013553
4.30359228565
4.16621990608
4.02487273256
3.88041486285
3.73364622285
3.58528596663
3.43596068317
3.28619902764
3.1364304177
2.98700063706
2.83818786065
2.69022785823
2.54334662876
2.39775812025
2.25372408817
2.11150222351
1.97142785616
1.83381617485
1.69907464346
1.56759690586
1.43960927747
1.3160096273
1.1966026991
1.08148350528
0.971476774916
0.864763400127
0.760109257998
0.655157995339
0.546374551124
0.43022587943
0.309209523097
0.171195315214
0.0390521793271
-0.0585132075635
0.794507250344
-0.919630003289
-2.49055092142
12.3282976262
2.15617152696
4.02509363905
3.24269633164
3.06914900365
2.98147795766
2.97312269187
3.01647238354
3.09587415364
3.20025387131
3.32149573003
3.45396781222
3.59364802375
3.73750385469
3.8831207959
4.02847221066
4.17178036466
4.31143955624
4.4459771859
4.57403702888
4.69437435844
4.80585701074
4.90746870527
4.99831301086
5.07761672504
5.14473245472
5.19914042198
5.2404482894
5.26839377718
5.28283445125
5.28377369082
5.27130074266
5.24591554735
5.20804685801
5.15790896478
5.09594214412
5.0227479934
4.93900861506
4.84546159911
4.74289976415
4.63216782222
4.51415315298
4.38977469411
4.25997021344
4.12568036635
3.9878294024
3.84730330719
3.70492861732
3.56145220589
3.41752649265
3.27370278865
3.13042092011
2.98802885637
2.8467934242
2.70692759047
2.56863320067
2.43207047046
2.2974732163
2.16501407723
2.03497598498
1.9075847756
1.78311262697
1.66214458151
1.54397850057
1.43024022995
1.32070861137
1.21395591718
1.11065644163
1.00767106702
0.901133725299
0.785934562901
0.657210746069
0.512897397695
0.355070735415
0.17879124888
0.00573509253618
-0.000275409302471
0.622509370528
-1.12127305574
-2.42091391661
13.8739465016
1.9496162926
4.52637118038
3.42324050898
3.30010820307
3.18872235955
3.17364070912
3.21098627171
3.28389934938
3.38040074298
3.49203788977
3.61330819957
3.74048120364
3.87087398035
4.00242339688
4.13342209378
4.26236638241
4.3878777078
4.50866712003
4.62352360866
4.73131498767
4.83099396895
4.92160613935
5.00229769233
5.07232200541
5.13104507585
5.17794921655
5.21263625609
5.23483014029
5.24437623125
5.24126543664
5.2256116851
5.19789392092
5.15843075956
5.10741679463
5.04526054431
4.97252189554
4.88983653361
4.79789626778
4.69745187062
4.58931112498
4.47433038303
4.35340430719
4.22745450968
4.09741476447
3.96421271043
3.82874644397
3.6918622652
3.55433035972
3.41682702103
3.27993017858
3.14409206856
3.00967004249
2.8769255771
2.74605377873
2.61725254316
2.4906393038
2.36643704568
2.24477097993
2.12590603574
2.01014480191
1.89723187831
1.78861959339
1.68359431742
1.58266737124
1.48620235596
1.39180007258
1.29782156784
1.19887218299
1.08818800648
0.958163761763
0.804075014334
0.627309569215
0.432656205584
0.219350304407
0.0203808076142
0.0288052242291
0.282590578925
-1.27371064262
-2.28206969622
15.2995204784
1.69317815198
5.06395965917
3.57921673801
3.53921885207
3.39657550673
3.37935064697
3.41141799198
3.4782267033
3.56674555773
3.66834497392
3.77781847744
3.89182824051
4.00810647805
4.12497828248
4.24107293318
4.35516689928
4.46610972199
4.57279468446
4.67415437074
4.76916775555
4.85687164547
4.93637298784
5.00686044518
5.06761368256
5.11801200896
5.1575388776
5.18579068358
5.20247093805
5.20741529523
5.2005542868
5.18210352264
5.15257248015
5.11204551818
5.06074031046
4.99906117595
4.927525935
4.84671653347
4.75727180054
4.65989195592
4.55533700917
4.44441984343
4.32799803751
4.20696455188
4.08223420839
3.95472769067
3.82534615653
3.69495020517
3.5643306717
3.43418631303
3.3051307126
3.17763324993
3.05207156933
2.92871362886
2.8077561804
2.68939149575
2.57375917235
2.46108755172
2.35159914639
2.24528535889
2.14335553288
2.04553534207
1.95258638144
1.86486051705
1.78193951334
1.70327256864
1.62556809932
1.54396795858
1.44984714873
1.33370686474
1.18749028465
1.00919029833
0.803968538396
0.574904249746
0.315024430628
0.0597221000631
-0.0477066863466
-0.170924550524
-1.3075094921
-2.08409993641
16.5853789271
1.41606003884
5.62983683556
3.70552549104
3.78592170174
3.6017996073
3.5879796967
3.61494533098
3.67610457742
3.75656626754
3.84780130692
3.94505222728
4.04545416625
4.14720551215
4.24904438534
4.34994511641
4.44896508689
4.54517919803
4.63765922794
4.72547757476
4.80772111111
4.88350760288
4.95200275825
5.01243527305
5.06410913247
5.10641510522
5.13883673643
5.16096373372
5.17247912583
5.17320831876
5.16302519594
5.14226162154
5.11142019329
5.07038876516
5.01938583536
4.95882041047
4.88917733425
4.81098754286
4.724835874
4.63136805932
4.53128910113
4.42535864979
4.31438591046
4.19922396854
4.08075712518
3.95989027972
3.83751951969
3.71451636539
3.59169164415
3.46976684918
3.3494031711
3.23109241123
3.11525545589
3.00215833131
2.89207490043
2.78513556899
2.68176999258
2.58190436093
2.48670722087
2.39625103321
2.3111297624
2.23217987407
2.15978675485
2.0945725272
2.03587268804
1.9814738288
1.92557484755
1.85935546616
1.77109227357
1.64989227537
1.48864927031
1.28623816995
1.04342405508
0.751131878838
0.397396719145
0.0301730117577
-0.24932719807
-0.582427888003
-1.20341969931
-1.83774045875
17.7217673688
1.14394798963
6.21123857541
3.79993765396
4.04018421539
3.80127534062
3.79754088594
3.81896685472
3.87506698344
3.94742952822
4.02810964665
4.1128981324
4.1994614876
4.28650125803
4.37318217652
4.45882640713
4.54277043843
4.62431119721
4.70269474562
4.77712933056
4.84680537271
4.91091718286
4.96868502557
5.01937385396
5.06230871983
5.09688924628
5.12259810825
5.13901749738
5.14581616793
5.1428103549
5.12985087911
5.10736002297
5.07573622458
5.03477664149
4.98466951606
4.92582140742
4.85869517689
4.78378137291
4.70161739802
4.6127971863
4.51796913968
4.41783393463
4.31314322368
4.20470018374
4.09334662149
3.97996365849
3.86543360696
3.75063800155
3.63641001045
3.52349329229
3.41261939648
3.30430195728
3.19905111585
3.09706335171
2.99901173793
2.90454670065
2.81522793996
2.73116388607
2.65262011686
2.58085716585
2.51644008434
2.46090004039
2.41521011529
2.37983661823
2.35274365509
2.3286222102
2.29739768048
2.24556867169
2.1580156414
2.02142308046
1.82582743928
1.56425148573
1.22952679575
0.815399384441
0.343708640259
-0.0993838550691
-0.439301494185
-0.745856130711
-0.999247280336
-1.55352135063
18.7067493021
0.897373663685
6.79307781408
3.86352193604
4.30168247247
3.99199809322
4.00635558959
4.02108411449
4.07290575283
4.13714744507
4.20723146083
4.27949751669
4.35218909638
4.42453405341
4.49612883887
4.56664314165
4.63569089533
4.70278819595
4.76735194222
4.8287221257
4.88618744438
4.9390126983
4.98646728313
5.02784721957
5.06249451525
5.08981427907
5.1092870797
5.12048768461
5.12307926665
5.11687072922
5.10171909174
5.07806943828
5.04619187684
5.00585302317
4.95722099847
4.90069218554
4.83670428264
4.76570737508
4.68819179837
4.60470087646
4.51582708189
4.42221128564
4.32454311004
4.22357119176
4.12008408466
4.01493521625
3.90898511341
3.80312425978
3.69821511244
3.59503933272
3.4944102627
3.39685091411
3.30316805281
3.21315607774
3.1285225083
3.04923380438
2.97582013615
2.90935888735
2.85022592999
2.80045817363
2.76169988396
2.73617640227
2.72484205121
2.72659747384
2.73576597746
2.74135267925
2.72636872927
2.6701089829
2.55071011829
2.34834656292
2.0478589976
1.64282313235
1.14236721679
0.584152353227
0.0504857665171
-0.356432578284
-0.613849709125
-0.78530448567
-0.873685432385
-1.24120512887
19.5441613762
0.691214275724
7.3600804589
3.90025838616
4.56914785325
4.17129256851
4.21303743195
4.21907207484
4.2676463005
4.32374140256
4.38333927726
4.4431834112
4.5021428718
4.55998139023
4.61672620117
4.67239389376
4.72687504331
4.77990313369
4.83106277904
4.87982122498
4.92555813436
4.96760118298
5.0052622253
5.03786229586
5.064755721
5.0853489727
5.09911823716
5.10562914248
5.10454597294
5.09567802177
5.07894183034
5.05471459801
5.02312740386
4.98395680756
4.93736662811
4.88373857464
4.8234834015
4.75701307514
4.68477103324
4.60724813346
4.52497827577
4.43854117448
4.34855968643
4.2557276585
4.16077269233
4.06451931827
3.96780092548
3.8715275484
3.77657598342
3.68382104988
3.59421660457
3.50821951758
3.42718456437
3.35141365203
3.28185268003
3.21889182444
3.16311220906
3.11623707734
3.07994110642
3.05725634414
3.05071510267
3.06239243434
3.09129770329
3.13172672341
3.17048282532
3.18657450541
3.15186208814
3.03493410692
2.80600556631
2.44397418388
1.94550063249
1.33573227335
0.675541696733
0.0582219598786
-0.414970539137
-0.692529716582
-0.822811505835
-0.878643235302
-0.904542764135
-0.90952608858
20.2417640351
0.534950336266
7.89836242179
3.91618932308
4.84005716883
4.33710900641
4.41640157709
4.41086625982
4.45753808231
4.50542122063
4.55479090665
4.60244773207
4.64796126612
4.69162427661
4.73389143006
4.77512608767
4.81549580753
4.85494968812
4.89323699365
4.92994584252
4.9645369147
4.99639167378
5.02485736546
5.04927371234
5.06900327805
5.08344946925
5.09208207917
5.09444964634
5.09021740343
5.07917435612
5.06135054013
5.03711169676
5.0063659726
4.96894695236
4.92501797591
4.87491595567
4.81900653636
4.75766475665
4.6912930446
4.62033480489
4.54526510397
4.46660325083
4.3849011089
4.30079939508
4.21495417722
4.12817465499
4.04125695638
3.95515953227
3.87071258354
3.78915933014
3.71141699123
3.63868654867
3.57199394653
3.51136099052
3.45781866929
3.41218783646
3.37607865169
3.35224275168
3.3436871583
3.35415591793
3.38590046298
3.43850002383
3.5053350147
3.57130901559
3.61068970186
3.58854610289
3.46473581105
3.20226534459
2.77804156702
2.19571066437
1.4965643602
0.761665084218
0.0963025779138
-0.404983235939
-0.701548845676
-0.828996132463
-0.859663777454
-0.820843163589
-0.708982218422
-0.566079884994
20.8097459
0.433364368086
8.39640964643
3.91842599853
5.11067384209
4.48826228802
4.61531440113
4.59458200124
4.64104493026
4.68056978276
4.72011298139
4.75592227688
4.78839787137
4.81833330933
4.84660788357
4.87393251046
4.90075174444
4.92722793964
4.95327091677
4.97858023934
5.00268444175
5.02500966506
5.0449316763
5.0618035504
5.07499317943
5.08389850686
5.08798301876
5.08677215071
5.07993832634
5.06716942923
5.04873263952
5.02505045139
4.99568486247
4.96056860403
4.91989243076
4.87393291035
4.82298518655
4.76737376934
4.70745380867
4.64362366867
4.57630177564
4.50595156932
4.43304454198
4.35818318308
4.28194775288
4.20513186363
4.12848861127
4.05322639805
3.97981772801
3.91062996613
3.84657383829
3.78789829585
3.73601955708
3.69107484111
3.65458227933
3.62831926612
3.61512677718
3.61885313675
3.64330298239
3.69160400896
3.76310996596
3.85085726784
3.93759380702
3.99410177489
3.97973965418
3.84830829008
3.55816111568
3.08658663298
2.44413029953
1.6840648081
0.89911410027
0.199879363698
-0.322622427391
-0.634341645712
-0.771062720636
-0.805300873779
-0.776615411906
-0.667748710272
-0.493555577973
-0.217355177677
21.2595457754
0.387434295945
8.84552072163
3.9142341325
5.37634747925
4.6245335312
4.80853778443
4.7685682098
4.81682728479
4.84773404652
4.87799233725
4.90236943944
4.92231597653
4.93906667577
4.95392765256
4.96795731414
4.98187582523
4.99605485161
5.01055929712
5.02518594704
5.03951611756
5.05301310532
5.0650753007
5.07506521436
5.0823544724
5.08633584634
5.0864675135
5.08226920077
5.07341344708
5.05958448337
5.04117069195
5.01850992175
4.99105574683
4.95875230805
4.92182192139
4.88051151697
4.83505197425
4.78570911044
4.73277386638
4.67659016845
4.61750570163
4.55593859246
4.4922813774
4.42707854521
4.36085448091
4.29446992686
4.22853250773
4.16477769285
4.10409808592
4.04810455338
3.99792625657
3.95377199361
3.91716837221
3.88897032854
3.87146409866
3.8675503488
3.88120178442
3.9168487812
3.97763096926
4.06334757468
4.16639656367
4.26851139699
4.3378817676
4.33048193106
4.19603327273
3.890290274
3.39076604059
2.71221088422
1.91424391444
1.09464632748
0.364784725304
-0.186702645951
-0.525815643824
-0.681867661175
-0.724298035171
-0.714191488589
-0.659177310671
-0.530601557796
-0.367936845889
0.131195345731
21.6030020737
0.395256190016
9.23984348546
3.91032217863
5.63195149306
4.74661735896
4.99461950602
4.931476948
4.9837098742
5.00562324631
5.02726966564
5.04067800071
5.04868820626
5.05287324069
5.05497771412
5.05640445163
5.05814486986
5.06077489835
5.0645065201
5.06921420679
5.07451766263
5.07991343098
5.08481733012
5.08859898453
5.09063214459
5.09030476073
5.08707777733
5.08048183385
5.07020155805
5.05595556734
5.03817624668
5.01707452501
4.99208899138
4.96314411527
4.93046413225
4.89427614245
4.85476657056
4.81215760422
4.76666207004
4.71857259196
4.66815804451
4.61576168619
4.56171901588
4.50651707076
4.45073277259
4.39517086505
4.34104577101
4.28968073913
4.2419958832
4.19954557387
4.16340288432
4.13433684409
4.11411933815
4.10443547429
4.10848882465
4.13023437872
4.17419918427
4.24395324062
4.33928565355
4.45283924872
4.56576271406
4.64540397375
4.64589818828
4.5149498103
4.206334413
3.6968418102
3.00167819622
2.18160005484
1.33464597487
0.571202617824
-0.0207123116952
-0.404151508179
-0.600022148022
-0.667897004069
-0.672141049345
-0.648573331947
-0.587863418867
-0.464738667331
-0.324932056126
0.474997081531
21.8517321239
0.452906223458
9.57613896045
3.91238608929
5.87234965647
4.85594467459
5.17186023295
5.08232085598
5.14063946385
5.15311428633
5.16693268935
5.169861503
5.16659853841
5.15889690778
5.1489667436
5.13854514509
5.12888763529
5.12076856
5.1145354339
5.11011578693
5.10715835408
5.10519249305
5.10364631005
5.10189508631
5.09930996267
5.0952746857
5.08926064521
5.08083222759
5.06971415292
5.05570473598
5.03912005556
5.02010098031
4.99811881378
4.97307785861
4.94517851415
4.91460954638
4.88149988478
4.84605433798
4.80841372273
4.76879205738
4.72739241672
4.68445716541
4.64047272379
4.59547711066
4.55078204916
4.50695387338
4.46474925015
4.42588335687
4.39134664636
4.36278575902
4.34139699395
4.32847203115
4.32619450734
4.33718005343
4.36549792828
4.41560059022
4.49116466515
4.59240418776
4.71223307194
4.83239174475
4.92035268076
4.93022320624
4.80883713671
4.50858665528
4.00412436908
3.3081546927
2.4784261634
1.61003749991
0.811618926816
0.172709976511
-0.263692967019
-0.508987307044
-0.613192145478
-0.636465588414
-0.624482428153
-0.594486587689
-0.533097548714
-0.4215191007
-0.301133134432
0.810195232916
22.0167423842
0.555214561773
9.85340459525
3.92489478886
6.09280264783
4.95442319304
5.33835502152
5.22049336342
5.28664272368
5.28926227768
5.29610670627
5.28905899776
5.27524433765
5.25638104626
5.23519066386
5.21372373015
5.19349074144
5.17545857856
5.16009316411
5.14734838299
5.13690126904
5.12831477459
5.12102397714
5.11440839613
5.10782721088
5.1006604681
5.0923947871
5.08266153607
5.07121176235
5.05795135278
5.04316800162
5.02683988897
5.0084654267
4.98789490081
4.96528665043
4.94080394213
4.91453069133
4.88662830395
4.85718107328
4.82632960155
4.79436778137
4.76102276011
4.72746347801
4.69358704681
4.65992569153
4.62768212596
4.59756693
4.57138928541
4.5504464958
4.53647397568
4.53085531226
4.53538951659
4.55282346057
4.58664024654
4.64127035496
4.72036311987
4.82446443989
4.94730840311