/*--------------------------------*- C++ -*----------------------------------*\
| =========                 |                                                 |
| \\      /  F ield         | OpenFOAM: The Open Source CFD Toolbox           |
|  \\    /   O peration     | Version:  v1806                                 |
|   \\  /    A nd           | Web:      www.OpenFOAM.com                      |
|    \\/     M anipulation  |                                                 |
\*---------------------------------------------------------------------------*/
FoamFile
{
    version     2.0;
    format      ascii;
    class       volScalarField;
    location    "600";
    object      pa;
}
// * * * * * * * * * * * * * * * * * * * * * * * * * * * * * * * * * * * * * //

dimensions      [0 2 -2 0 0 0 0];


internalField   nonuniform List<scalar> 
6400
(
0.0258513629439
0.0200237257019
0.0171656662579
0.0170317693744
0.0499883028062
0.0867007211921
0.134048942248
0.203348037656
0.287340991533
0.371619174711
0.447262870675
0.51148208485
0.563961659181
0.60485544052
0.634574620662
0.653938671527
0.664094620006
0.666316006961
0.661849134616
0.651842819678
0.63732221733
0.619182606995
0.598190046604
0.574991084014
0.55012536858
0.524042259248
0.497115613607
0.469659450139
0.441940833224
0.41419459678
0.386639138258
0.359511494017
0.33313210844
0.308012385529
0.28451460697
0.260652670028
0.225810005894
0.173166122243
0.103865030667
0.0244257272385
-0.0601682150205
-0.147445917676
-0.236277254807
-0.325884493003
-0.415531061806
-0.504522779347
-0.5922237648
-0.678037320807
-0.761378765986
-0.841661194318
-0.918288301139
-0.990653158643
-1.058138184
-1.1201209401
-1.17598389723
-1.2251323528
-1.26701784037
-1.30116943979
-1.3272286888
-1.34498799713
-1.35442630349
-1.35573995552
-1.34936195551
-1.33596797922
-1.31646414367
-1.29195844263
-1.26371314204
-1.23308683625
-1.20145633477
-1.1701484485
-1.14031062538
-1.1128828568
-1.08824546831
-1.06654175705
-1.04624757869
-1.02722390399
-1.00403314507
-0.985309996854
-0.955608559633
-0.980776210542
-0.0255545772686
-0.0500277702044
-0.0409864832469
-0.0110474383714
0.0596252487408
0.218318141057
0.423842590121
0.692667373644
1.02617733859
1.40857840626
1.82366230532
2.259733528
2.70773831853
3.15972719262
3.60879057487
4.04932645105
4.47703252709
4.88869534144
5.28196268776
5.65516639778
6.00718225534
6.33731272231
6.64518522756
6.93067047577
7.19381569064
7.43479477578
7.65386745756
7.85135053966
8.02759417387
8.1829670416
8.31784411957
8.43259007504
8.5275595028
8.60324418943
8.66174820126
8.71162259395
8.77172821973
8.83811050106
8.89336037723
8.93010102391
8.94763835524
8.94593263646
8.92438228053
8.88218842902
8.81861462034
8.73300770764
8.62476884286
8.49335423242
8.33830008868
8.15925194477
7.95599571169
7.72849070442
7.47690917486
7.20168048118
6.90354099595
6.5835852937
6.24331645879
5.88468801276
5.51013158243
5.12256096217
4.72534588248
4.32224875393
3.91732247405
3.51477058656
3.11877721469
2.73331734412
2.36196347266
2.00770040708
1.67277131182
1.35854344762
1.06545772382
0.792924286186
0.539557572952
0.302803976445
0.0805995239569
-0.131355071874
-0.328682032626
-0.51906383938
-0.642161066883
-0.793522974181
-0.104608182169
-0.0822084108423
-0.0543441689155
-0.00689051364924
0.0630929688571
0.154686996609
0.273570294848
0.427328867552
0.612478012269
0.816497656631
1.02733148827
1.23669457412
1.43882917991
1.62929849329
1.80476969712
1.96304780847
2.10294571641
2.22404225803
2.3264562924
2.41067720891
2.47744110353
2.52763537833
2.56222644783
2.58220629338
2.58855659534
2.58222499537
2.56411203438
2.53506409545
2.49587246567
2.44727406466
2.389955676
2.32454725196
2.25156814086
2.17099730052
2.08062769191
1.97241655368
1.84565917571
1.71559330012
1.59202097511
1.47379948045
1.35929108414
1.24875797651
1.14315834945
1.04344699865
0.950493992379
0.865094419963
0.787924417161
0.719484841315
0.660060575777
0.609694469227
0.568166947654
0.534981110405
0.509353107293
0.490211727398
0.476207867163
0.465738550119
0.456987100165
0.447984029023
0.436688762064
0.421092961004
0.399340172814
0.36985536363
0.331472050692
0.283544442377
0.226029961733
0.159530426968
0.0852853246059
0.00511095922815
-0.0786990921543
-0.163541052693
-0.24664346825
-0.325420025315
-0.397462001662
-0.461742096391
-0.516886808828
-0.567023258754
-0.604639179412
-0.648938141941
-0.600774332007
-0.710675388908
-0.282069336751
-0.0909754741425
-0.106883754189
-0.101611439133
0.0123300870788
0.155625090381
0.310272126219
0.488488362118
0.690128275365
0.906756762702
1.13127999451
1.35931615786
1.58771407223
1.81384875148
2.03561786581
2.25148447407
2.46039515164
2.66165098249
2.85479723738
3.03954662879
3.21572584028
3.38323826587
3.54203683126
3.69210658199
3.83345308125
3.96609674723
4.09006911566
4.2054122588
4.3121766602
4.41042159932
4.50020245049
4.58157204828
4.65453311474
4.71934393851
4.77705041241
4.83147997879
4.87139198088
4.89225294677
4.89848044598
4.89073857849
4.86746441861
4.82783075847
4.77180912704
4.69956856276
4.61131620649
4.50737581671
4.38825035983
4.25463522779
4.10741907858
3.94768370353
3.77670072002
3.59591825947
3.40693821603
3.21148140635
3.01134209744
2.80832975107
2.60420120165
2.40058480147
2.19890417489
2.00030822923
1.80561889784
1.61530523407
1.42949336601
1.24801508009
1.07049515769
0.896468233874
0.725517094522
0.557411231543
0.392252260806
0.230572044184
0.0734993338006
-0.0773132796061
-0.219199191604
-0.349604174569
-0.463070665388
-0.559644220612
-0.620735713763
-0.671922432244
-0.560739914682
-0.701500935814
-0.504572753187
0.0446920631695
-0.090863661574
-0.0750207335015
0.13664981218
0.330762444542
0.491231463307
0.653459892249
0.823897856386
0.997470016794
1.17146830923
1.34485768722
1.51629277149
1.68405087141
1.84644805254
2.00201852233
2.1495295564
2.28796390593
2.41650346592
2.53451119497
2.64151104448
2.73716651977
2.82126032106
2.89367472542
2.95437442206
3.00339068913
3.04080832317
3.06675333357
3.08138346769
3.08487682801
3.07742803356
3.05922755116
3.03047970319
2.99123029361
2.94146068903
2.88139209039
2.81942204656
2.75717259714
2.69591147862
2.63644494846
2.57855020923
2.52190658006
2.46643937525
2.41208063036
2.35859746955
2.30559412287
2.25255133322
2.19884711238
2.14377263713
2.08656003676
2.02642111123
1.96259330295
1.89438838145
1.82124228451
1.74276165437
1.65876354206
1.56930199082
1.47467700759
1.37542052439
1.27225776752
1.16604442349
1.0576857886
0.94804730259
0.837870140301
0.727705910661
0.617882014855
0.508507837619
0.399514597343
0.290747085129
0.182041528313
0.0734330619239
-0.0348992790712
-0.141887362609
-0.246842180956
-0.345085268464
-0.438867523509
-0.504166935827
-0.578737027712
-0.443522482229
-0.674390072332
-0.665298732264
0.40496196575
0.0648680694476
0.108209257114
0.374211214016
0.556629462316
0.682915182465
0.808509317475
0.940683158992
1.07590897667
1.21415602471
1.35596378714
1.50057436078
1.64647837763
1.79206855705
1.93585655109
2.07651233992
2.21288265044
2.34400144701
2.46908540142
2.58751798157
2.69882964289
2.80267721117
2.89882480461
2.98712637647
3.06751121845
3.1399716733
3.20455383107
3.26134987601
3.31049318539
3.35215474307
3.38654825018
3.41394451618
3.4347184322
3.44911141021
3.45504037243
3.44976069147
3.43284717422
3.40463262706
3.36565991709
3.31623825521
3.2566355146
3.1873520234
3.10910825486
3.02273425701
2.9291132595
2.82916047576
2.72379424909
2.61389762967
2.50028187436
2.38365896379
2.26462370882
2.14364702224
2.02108111689
1.89717816019
1.7721213104
1.64606654089
1.51919051706
1.39173884208
1.26406636901
1.13666171317
1.01014852736
0.885260130295
0.762788573787
0.643515824612
0.528138110762
0.41720229047
0.311056669708
0.209856853747
0.113554429948
0.0220503127523
-0.0649777884971
-0.147265049165
-0.225714955104
-0.297029809563
-0.367900558031
-0.412032771166
-0.486296400947
-0.300840121921
-0.627647073013
-0.858699243901
0.924418023285
0.296366326259
0.366902457009
0.631656465143
0.75857085128
0.834400008566
0.918925504525
1.01379313492
1.11530332353
1.22394076669
1.33983524585
1.46161385589
1.5872914414
1.71487326003
1.8425054132
1.96849984636
2.09135404228
2.20976286153
2.32261454465
2.4289763862
2.52807644662
2.61928495626
2.70209629941
2.77611262817
2.84102908042
2.89662123065
2.94273410771
2.97927342411
3.00619734586
3.02351106321
3.03125492923
3.02949717047
3.0183124191
2.998104659
2.9714184765
2.93960085927
2.90318304753
2.86274748008
2.81882281578
2.77163178513
2.72112415423
2.66715723564
2.60957948618
2.54822546298
2.48291674776
2.41348898726
2.33982173806
2.26185760581
2.17961221527
2.09317743806
2.00271834811
1.90846373845
1.81069189131
1.70971408292
1.60585934567
1.49946392325
1.39086872396
1.28042675754
1.16852054541
1.0555865413
0.942140861011
0.828798046753
0.716275315191
0.605376266671
0.496952784487
0.391855336756
0.290866427649
0.194672053693
0.103790111844
0.0186818355877
-0.0605407358193
-0.133224132274
-0.200415772828
-0.258450801682
-0.316634233961
-0.344110189939
-0.417683687029
-0.167333149351
-0.588396822393
-1.05669428289
1.58872413897
0.557756957426
0.650879581388
0.86348728017
0.914666985444
0.943057652696
0.994977041
1.06331650163
1.14351161113
1.23523665607
1.33737503695
1.4477261952
1.56388742301
1.68362410798
1.80491409902
1.92594375286
2.04511230087
2.16103177691
2.27251705163
2.37856982467
2.478360821
2.57121204609
2.65658001293
2.73404027664
2.80327375169
2.86405487561
2.91624167379
2.95976793172
2.99463641821
3.02091641662
3.03873700765
3.04830299182
3.04984922731
3.04363543214
3.02904797441
3.00576339051
2.97399962683
2.93419977526
2.88690946874
2.83268026167
2.77204659703
2.70556735184
2.63383962855
2.55746294843
2.47699603446
2.39293226065
2.3056899306
2.21561002739
2.12296078647
2.02795021368
1.93074517846
1.83149384883
1.73034792576
1.62748147704
1.52310397802
1.41746643955
1.31086086009
1.2036153009
1.09608803043
0.988664582477
0.881760945065
0.775831723907
0.671382091179
0.568974827777
0.46922697392
0.372797581401
0.280343275183
0.192503350513
0.10981078532
0.0328014446578
-0.0383814672642
-0.102990419955
-0.162332728066
-0.212258053605
-0.264304096021
-0.282253821861
-0.363972961893
-0.049094884422
-0.564555587308
-1.25598704372
2.37928610367
0.807980592581
0.93160476605
1.05896007672
1.03723503761
1.03121475586
1.06128217763
1.1127287207
1.18030917035
1.2623327686
1.3563517171
1.45949518658
1.56909361281
1.68279034176
1.79849676756
1.91436102809
2.02875351354
2.14025358795
2.24763377967
2.3498429195
2.44598953591
2.53532604325
2.61723396397
2.69121040929
2.75685595074
2.81386397515
2.86201155292
2.90115181687
2.93120788935
2.95216883655
2.96408751875
2.96708798003
2.96139273815
2.94745768407
2.92600063178
2.89743588143
2.86214422635
2.82053105209
2.77298305845
2.71983644427
2.66137890532
2.59788417501
2.52964500342
2.45698171246
2.38023533196
2.29975885807
2.21590846278
2.12903222395
2.03945749195
1.94748065929
1.85336242594
1.75733007858
1.65958676533
1.56032656602
1.4597527154
1.35809626152
1.25563080933
1.15268122619
1.04962474607
0.946885673133
0.844928482661
0.744249376405
0.645375409063
0.548863121163
0.455297952437
0.365295963235
0.279466010219
0.198408605716
0.122612277956
0.0525957523726
-0.0116275285655
-0.0694323762279
-0.122568800567
-0.16663053758
-0.215460561196
-0.228112922221
-0.324267456239
0.0523645398792
-0.55331390745
-1.43421983091
3.27849514073
1.01819843942
1.19980429647
1.22341798289
1.14383788894
1.11618417588
1.13198893947
1.17280366161
1.23293649031
1.30917997775
1.39800253181
1.49611178383
1.60072474031
1.70947904573
1.82032689008
1.93147800685
2.04136586262
2.14862288332
2.25206014575
2.3506504746
2.44351374857
2.52990375449
2.60919626254
2.68087825571
2.74453820244
2.79985742293
2.84660255304
2.88461920692
2.91382696927
2.93421672758
2.94584823847
2.94885670266
2.94342565029
2.9297962414
2.90805328267
2.87839518065
2.84117158147
2.79682891462
2.7458689693
2.68881590402
2.6261939371
2.55851968256
2.48630064491
2.41002916983
2.33017276324
2.24716705581
2.16141311941
2.07327667629
1.9830874782
1.89113887567
1.79768864116
1.70296175643
1.60715614304
1.51045167517
1.41302210428
1.31505072076
1.21674570512
1.11835426232
1.02017177276
0.922543525167
0.82586475678
0.730570082228
0.637133666826
0.54605999543
0.457883280047
0.373179387777
0.292527882639
0.216492187132
0.145492443614
0.0800712498693
0.0200638974546
-0.0341311634487
-0.0846662824569
-0.126923474819
-0.176432399544
-0.189401493469
-0.301576308052
0.133410382745
-0.557495364306
-1.57900527209
4.25484091338
1.16499573612
1.45588797727
1.3657526285
1.24782239684
1.2072904623
1.21312547752
1.2468815493
1.30211996464
1.37413607583
1.4586149007
1.55203111904
1.65158432387
1.75497730479
1.86026492635
1.96577048572
2.07003321167
2.1717740877
2.26987217344
2.36334812022
2.4513516944
2.53315144831
2.60812589151
2.67575547085
2.73561526259
2.78736802717
2.83075811983
2.86560532121
2.89180110429
2.9093021854
2.91813436487
2.91837995681
2.91024460272
2.89410085995
2.8701912707
2.83877792514
2.8001904743
2.75481337193
2.70306629986
2.64539307469
2.58225643349
2.51413678434
2.44153103189
2.36494614262
2.28488695887
2.2018422616
2.11627246327
2.02860008836
1.93920331056
1.84841309818
1.75651442958
1.6637511671
1.57033405657
1.47645108386
1.38227732417
1.28798927343
1.19377636105
1.0998534106
1.00646937057
0.913909051495
0.822499061677
0.732592384121
0.644578368742
0.558869179913
0.475895849415
0.396114945878
0.320056585324
0.248132378745
0.180502814489
0.117792428942
0.0593755704199
0.00510581967997
-0.0474044542517
-0.0937342623567
-0.148509675977
-0.172810396091
-0.292699906604
0.195003289729
-0.591788609899
-1.67951760056
5.27260653972
1.23802674513
1.70871032348
1.49426686924
1.35660918025
1.30713347134
1.30521345114
1.33392761921
1.38540396661
1.45362211987
1.53375428914
1.62217770899
1.71615012341
1.81349878462
1.91242982047
2.01141890425
2.10914228154
2.20443637437
2.29627190877
2.38373910454
2.46603783944
2.54247063494
2.61243715655
2.67542920446
2.73102576371
2.77888790459
2.81875391458
2.85043346345
2.87380483521
2.88880594136
2.89544486083
2.89377200812
2.88399706173
2.8663959514
2.84108603865
2.80831537425
2.76842040034
2.72180108795
2.6689038045
2.61020805637
2.54621599233
2.47744487677
2.40442162976
2.32767669618
2.24773545774
2.16510770124
2.08027659416
1.99368819393
1.90574270822
1.81678861816
1.72712180948
1.6369892676
1.54659759726
1.45612561916
1.36573248984
1.27557516583
1.18581744854
1.09664278646
1.00826161273
0.920907433802
0.834852546973
0.750382703549
0.667802217598
0.587435804629
0.509622331117
0.434591294916
0.362943856071
0.294783212132
0.229568126663
0.168007063327
0.10884455378
0.0507079684757
-0.00839161013425
-0.065561939405
-0.13155558833
-0.181224635086
-0.28186321963
0.232096053136
-0.67160846923
-1.73110957964
6.29501164415
1.23754721076
1.96850888615
1.61280799479
1.47239214733
1.41459045071
1.40662763378
1.43163794927
1.47981932531
1.54417553594
1.61958413323
1.70243345866
1.79010980824
1.88061581723
1.97234436863
2.06394731012
2.15425395085
2.2422280771
2.32694118206
2.40756096565
2.48334458159
2.55363515116
2.61785991471
2.67552793292
2.7262274446
2.76962224395
2.80544780411
2.83350544743
2.8536602246
2.86582945871
2.86999942172
2.86618550249
2.85461915546
2.83557546279
2.80915045949
2.77556183138
2.73511714004
2.6881831175
2.63517410452
2.57654688046
2.5127941262
2.44443621686
2.37201255074
2.29607216787
2.21716292889
2.13581948131
2.05255079282
1.96782816298
1.8820749394
1.79565840898
1.70888764519
1.62201563823
1.53524732319
1.44875562998
1.36268304429
1.2771664518
1.19234107358
1.10835630027
1.0253844408
0.943612369694
0.863250781469
0.784542045862
0.707694340888
0.632952673697
0.560695638325
0.490586305749
0.423409673848
0.359078827324
0.296091715739
0.234416295053
0.171820125534
0.105829990586
0.0346907614336
-0.0403988519804
-0.125246308736
-0.206079964447
-0.255108526034
0.208560131225
-0.782034242191
-1.73305619505
7.28955376004
1.17323417458
2.24372170185
1.72140864132
1.59492334365
1.52741983943
1.51533106798
1.53753998453
1.58255546349
1.6427915305
1.71298939709
1.78964792169
1.87034833785
1.95331148254
2.03714266561
2.12068423056
2.20292586977
2.28296337597
2.35997147179
2.43319843221
2.5019618362
2.56564938869
2.62372070364
2.67570750855
2.72121301959
2.75990973029
2.79153591718
2.81589005648
2.83282859038
2.84225395085
2.84413382172
2.83845371004
2.82544939812
2.805331731
2.7781567501
2.74411688742
2.70350755151
2.65668446153
2.60404876072
2.54604430509
2.4831534596
2.41588996907
2.34479084401
2.27040744231
2.19329497229
2.11400019998
2.03304795743
1.95092724146
1.8680794176
1.78488664135
1.70166911525
1.6186850986
1.53613740654
1.45419793301
1.37299483765
1.29265046071
1.21327633229
1.13500067663
1.05795567281
0.982316266371
0.90820810037
0.835926770277
0.765553603957
0.697071830242
0.631257288067
0.567528062653
0.505972033521
0.446318956219
0.386172977135
0.323429742021
0.254270491347
0.175743341085
0.0868587417616
-0.0111786762293
-0.119952745566
-0.22362615229
-0.222706074916
0.0950119345328
-0.89014300786
-1.68828270066
8.23014510552
1.0604002337
2.53839487548
1.81750827148
1.7232592491
1.64329530545
1.62939453665
1.64931974775
1.69115972136
1.74698199794
1.81150436435
1.88143119778
1.95459495238
2.02946712973
2.10488220461
2.17987929342
2.25360939809
2.3252994469
2.39422488334
2.45971397699
2.52114413535
2.57794847146
2.62962115392
2.67571930885
2.71586470336
2.7497424051
2.77709710775
2.79772772987
2.81148420065
2.81825905122
2.81800197738
2.81069375719
2.79653944164
2.77568696519
2.7481620305
2.71413071932
2.67386887104
2.62771336068
2.57604613386
2.51929320494
2.45792154389
2.39243231478
2.32335319218
2.25123022051
2.17661806867
2.10006824481
2.022115396
1.94326169203
1.86396480001
1.78462090149
1.70556244854
1.62705499047
1.54929986665
1.47247492428
1.39669562558
1.32208354671
1.24872590066
1.17676509771
1.10627471367
1.03755594271
0.970536421155
0.905594645087
0.843204425529
0.783030101416
0.725702398387
0.670851992381
0.617557809363
0.564148709658
0.506974383172
0.441598646467
0.362917305614
0.268344519026
0.159036850198
0.0378841123997
-0.0950328618657
-0.218012325552
-0.222213715448
-0.116021932736
-0.95839736604
-1.60188519812
9.0981342969
0.916784039337
2.85186329623
1.89794194663
1.85682405857
1.76012448578
1.74710287485
1.76487800245
1.8035185767
1.85467096575
1.91314042035
1.97592409709
2.04114703318
2.10755441636
2.17421911865
2.24037798693
2.30534080143
2.36846218023
2.42911353405
2.48670202728
2.54066229624
2.59047319014
2.63566484767
2.67582182574
2.71058776598
2.73966423965
2.76280575507
2.77981439897
2.79053407387
2.79484645403
2.79268501335
2.78403145566
2.76906149024
2.74782844739
2.72033808878
2.6867366318
2.6472778866
2.6022773286
2.55209744802
2.49714626891
2.43787345444
2.37476324544
2.30832751049
2.23909911665
2.16762385451
2.09445005933
2.02011590898
1.94513165041
1.86997051105
1.79504240749
1.7206960298
1.64720943336
1.57478430881
1.50362026132
1.43382024537
1.36552992439
1.29880060943
1.23391869518
1.17077647518
1.10993281984
1.05173073054
0.996211028481
0.944045584735
0.895185899911
0.849736438582
0.806943635424
0.764788485244
0.719529596236
0.665479615038
0.596353521067
0.507129774318
0.396992779875
0.269357345322
0.126018749099
-0.0372795984876
-0.200306400073
-0.284962043158
-0.376131788175
-0.941497225631
-1.48019809527
9.88188977116
0.759729754615
3.17942098491
1.96037815582
1.995499622
1.87592680891
1.86691760404
1.88231890975
1.91781245597
1.96410637189
2.01626200596
2.0716361804
2.12867252748
2.18640503902
2.24414816886
2.30133416278
2.35742796423
2.41190697164
2.46423374077
2.51389378443
2.56037460861
2.60320186094
2.64194256073
2.6762099672
2.70567334287
2.73005471969
2.74912170484
2.76268315237
2.77057359876
2.77266573478
2.76882828891
2.75910016624
2.74367060291
2.72240993545
2.69533229375
2.6625781341
2.62437631752
2.58101515711
2.53283282932
2.48021493237
2.42358973269
2.36342082047
2.30020025046
2.2344429856
2.16668035866
2.09745180011
2.02729488389
1.95672320925
1.88622689692
1.81622986371
1.74710123758
1.67914007834
1.61255942383
1.54759051924
1.48432734776
1.4230278582
1.36362911619
1.30668723305
1.25253055261
1.20142931843
1.15401093859
1.11062411442
1.07189749245
1.03803031064
1.00871655338
0.982090311339
0.95410487496
0.918481193757
0.86754788311
0.794361824296
0.694923565215
0.569197230402
0.418341775725
0.237740101042
0.02062035117
-0.207990232388
-0.392590641114
-0.587257670848
-0.882198945861
-1.32991367531
10.5758123013
0.604400180972
3.51369589014
2.0041661219
2.13930641609
1.98875983426
1.98749735767
1.99994815363
2.03247452166
2.07378758201
2.11949037801
2.1673271884
2.21607446721
2.26506420501
2.31385043356
2.36205794429
2.40930309091
2.45518069507
2.49924143784
2.54104928479
2.58013809573
2.61608425035
2.64849107954
2.67700180679
2.70131657108
2.72118154294
2.73638145097
2.74673443003
2.75207093664
2.75225224748
2.74710620011
2.73669114982
2.72114355574
2.70022806544
2.67393442057
2.64240077276
2.60584327167
2.56453220772
2.51878663558
2.46896984114
2.41548415036
2.35876544444
2.29927856904
2.23751401254
2.17398290455
2.10921033568
2.04373145348
1.9780596862
1.9127053974
1.84810785661
1.78466694696
1.72269608411
1.66246000105
1.60424529389
1.54813849614
1.49454640034
1.44386208374
1.39644956538
1.35278031899
1.31348626389
1.27941155179
1.25145282283
1.2304833845
1.2165159019
1.20804735321
1.20097464499
1.18821786204
1.16059415573
1.10845817394
1.02383305801
0.901473390132
0.738205462847
0.530966167357
0.277580603066
-0.00831566351506
-0.278562429713
-0.490079991945
-0.67094544307
-0.802260397482
-1.15755411817
11.1790262543
0.46282508067
3.84609204678
2.03050440279
2.28795025517
2.0967613662
2.10771734466
2.11625293265
2.14615162972
2.18241191211
2.22163930159
2.26193169774
2.30240896201
2.34270466378
2.38260686263
2.42193167519
2.46044269744
2.4978471869
2.53378470629
2.5678959163
2.59975326652
2.62899235279
2.65524819251
2.67819681845
2.69757721963
2.71316223827
2.72475736437
2.73219267688
2.73530008792
2.73393199343
2.7278795884
2.71720714658
2.70193678333
2.68175666297
2.65662526374
2.62668412045
2.59214718274
2.55327035224
2.51035565657
2.46374844739
2.41382862999
2.36100348497
2.30570544579
2.24839360553
2.18955219896
2.12968658348
2.06932887265
2.00898818363
1.94920609298
1.89043358321
1.8331286507
1.77757187119
1.72425812257
1.67338420857
1.62551991248
1.58102214555
1.54011316869
1.50358136062
1.47218037306
1.44717534025
1.43003873956
1.4220977444
1.42398332219
1.43441483703
1.44913553397
1.46007492068
1.45556607023
1.42199154694
1.34573220615
1.21521315406
1.0225246285
0.765739901411
0.453104475354
0.110253363807
-0.212245425929
-0.454502115359
-0.603024417471
-0.695095948799
-0.744937294755
-0.969116965533
11.6941027422
0.343653055886
4.16804115643
2.04215799397
2.44049981289
2.19830718107
2.22666055032
2.22987936342
2.25767671701
2.28883900379
2.32167385984
2.35451344507
2.38683841441
2.41858128289
2.44975690926
2.48037475362
2.51033876974
2.53946695667
2.56749206477
2.59412383846
2.61896800477
2.64173254701
2.66207057989
2.67970028201
2.69440986587
2.70599781408
2.71429547917
2.71914893926
2.7203996742
2.71788459204
2.71135487916
2.70083422856
2.68623049458
2.66716213761
2.64354788966
2.61554149368
2.58337934416
2.54731466576
2.50762554627
2.46462810467
2.41867530719
2.37014608428
2.31944039534
2.26698450878
2.21323256731
2.15866376926
2.10381250599
2.04918501434
1.99536278598
1.94279606833
1.89214105075
1.84342292619
1.79784642838
1.75564166928
1.71677955601
1.68213043203
1.65210623004
1.62805177088
1.61150083094
1.60444468128
1.60879526158
1.62558223216
1.65378468213
1.68870653749
1.72078418785
1.73530980056
1.71361803442
1.63586269922
1.4844765176
1.24872635594
0.930266139397
0.549132365886
0.146578788769
-0.219942187209
-0.493340050151
-0.648148058685
-0.717522527804
-0.742266891294
-0.757928145556
-0.769918954985
12.1259104863
0.252350377862
4.47189518896
2.04292927692
2.59526979717
2.29218907688
2.34355759188
2.33961658531
2.36604950578
2.39206668055
2.41868571875
2.44424010452
2.46860871926
2.4920115696
2.51468456199
2.53683466933
2.55849456381
2.57959953109
2.59997867517
2.61939388367
2.6374903061
2.65405960035
2.66874759965
2.68133932578
2.69167859763
2.69957938286
2.704908554
2.70753906054
2.70734496823
2.70414233373
2.69763054658
2.68769392321
2.67412928655
2.65654064916
2.63482101854
2.60910436964
2.57963714808
2.54669510846
2.51056000365
2.47152264507
2.42989844695
2.38602793845
2.34027252378
2.29302156257
2.24470070246
2.19576541659
2.14674512321
2.0981593629
2.05068926239
2.00469827607
1.96125469407
1.92062058886
1.88348004986
1.85028663108
1.82109498841
1.79715322571
1.77962526535
1.77061543581
1.7724483573
1.78752343835
1.81728358315
1.86075169839
1.91271863082
1.9619748424
1.99067276918
1.97552629283
1.89127731446
1.71636916412
1.43990091737
1.06916507672
0.635107581344
0.19138376734
-0.19799694736
-0.481761163174
-0.643867736346
-0.710309783934
-0.719048267477
-0.670512840103
-0.549204265612
-0.564528201466
12.4806960813
0.191657178437
4.75145512205
2.03707609078
2.74990252475
2.3777418707
2.4576958267
2.44440122746
2.47042123399
2.49121551707
2.51187936867
2.53037135018
2.54704069304
2.56237139434
2.57681904242
2.59079096532
2.60443277083
2.61781741697
2.63085986599
2.64335265315
2.65500793226
2.66569380032
2.67501848896
2.68288622257
2.68918029899
2.69370649013
2.69638738115
2.69714165081
2.69591677444
2.69252007477
2.68657445524
2.67774916042
2.66556477049
2.64965553735
2.63006960052
2.60700117072
2.58063766412
2.55119700245
2.51895409165
2.48419733579
2.44722037345
2.40832427319
2.36782835877
2.32608502945
2.28347971598
2.24046095017
2.1975454569
2.1553545653
2.1146361523
2.07613548625
2.04065557904
2.00844386504
1.98011428022
1.95625702804
1.93760250277
1.92596123763
1.92335617775
1.93262673679
1.95646677977
1.9966488359
2.05225975289
2.11757148107
2.18001762785
2.21920503467
2.2082466637
2.11807985338
1.92469796811
1.61814509983
1.21069784278
0.740874067007
0.268902748681
-0.138635561564
-0.431977489779
-0.598532031158
-0.665757875113
-0.675377027349
-0.64086312802
-0.528787782268
-0.346387860968
-0.356792568968
12.765365031
0.162145081417
5.00217957136
2.02879979639
2.90158116539
2.45488009916
2.56833011888
2.54334029106
2.57007690184
2.58551941439
2.60056502722
2.61225416682
2.62152938018
2.62909837223
2.63564198868
2.64176421264
2.64770986619
2.65372370562
2.6597648274
2.66565116582
2.6712104693
2.67633312926
2.68058589217
2.68407333069
2.68664627153
2.6880791122
2.68840933107
2.68764548266
2.68584124168
2.68263526223
2.67769120409
2.67067459115
2.66061621495
2.64686305068
2.62955653424
2.60920472983
2.58613101374
2.56048517308
2.53245806299
2.50228856348
2.4702440953
2.43659592819
2.40161540472
2.36562465765
2.32895364707
2.29216838728
2.25559389192
2.22038916087
2.18723049133
2.15651575486
2.1291969725
2.10557335735
2.08646302571
2.07284344852
2.0662130787
2.0690747144
2.084225864
2.11478491611
2.16271122026
2.22721002411
2.30229532225
2.37452479352
2.42188936409
2.415171255
2.32285094764
2.11940478103
1.79537166827
1.36593326008
0.873645745315
0.381688701995
-0.0431067520665
-0.352211077982
-0.532012277427
-0.605341161175
-0.615262733713
-0.595716027462
-0.537029868574
-0.40488116546
-0.236879268797
-0.149885975982
12.9869737117
0.162779043429
5.22116108976
2.02186801744
3.04730070298
2.52404471541
2.67462442953
2.63574139327
2.66441205459
2.67432194027
2.68415433395
2.68932198212
2.69154686173
2.69169865155
2.69069654668
2.68932739222
2.68793410879
2.6869676642
2.68634825529
2.68596984434
2.6858106439
2.68566203319
2.68513193149
2.68459677015
2.68371185592
2.68224138655
2.68047952996
2.67868216543
2.67705830777
2.67480236526
2.67106163237
2.66549856478
2.65757423022
2.64665543195
2.63245716438
2.61533472156
2.59580436638
2.57415475912
2.55058595593
2.5252752158
2.49842400576
2.47026092221
2.44100549316
2.4110307326
2.38045633206
2.35023439542
2.32077229007
2.29279755573
2.26725094714
2.24451134143
2.22555947625
2.21097872807
2.20191788565
2.19990265906
2.20721897076
2.22699430435
2.26232691757
2.31551354359
2.38589225578
2.46754866016
2.54679779795
2.60094076755
2.59961395709
2.50985933194
2.30491936236
1.97482563778
1.53511490397
1.02911715763
0.520363644365
0.0754280543275
-0.257131033713
-0.461709755274
-0.556189876787
-0.578296791812
-0.565660015977
-0.535372410678
-0.469772432098
-0.342551879036
-0.20021928514
0.0535862448466
13.1523632245
0.191425932585
5.40695240773
2.01939225874
3.18413536323
2.58608459216
2.77563809019
2.72113461222
2.75290627435
2.75707675459
2.76215591839
2.76109469991
2.75664585955
2.74975378542
2.74159588699
2.7331190323
2.72478313851
2.71725331438
2.71030383684
2.70405003015
2.69855784546
2.6933600051
2.68834924602
2.68413474712
2.67992296705
2.67559793362
2.67189110834
2.66942481369
2.66868588766
2.66893201489
2.66857565265
2.66547170988
2.65873159046
2.64942833984
2.63816240523
2.62471730948
2.60916186101
2.59178816292
2.57288197647
2.55261947314
2.53115000417
2.5087031814
2.48533517644
2.46157110852
2.43768447755
2.4142421255
2.39188383588
2.3713079813
2.35346213964
2.33896898956
2.32888551698
2.32412494646
2.32627057374
2.33749746044
2.36076173407
2.39937237518
2.45566779915
2.52936680698
2.61486899472
2.69885842269
2.75881286565
2.76419090377
2.68137478818
2.48243378698
2.15585977072
1.71544429526
1.20272658367
0.679749821381
0.212633220031
-0.148479286977
-0.38405956006
-0.506666799038
-0.548941493499
-0.546495822122
-0.524683445159
-0.489504965757
-0.423566871372
-0.307940028206
-0.185102404869
0.251492957109
13.2679376733
0.245298362198
5.55932382052
2.02374435138
3.3094580405
2.64210127678
2.8703520578
2.79927303271
2.83509798165
2.83334990077
2.83416893029
2.82717882335
2.816462316
2.80292595589
2.7880302866
2.77285622378
2.75801575171
2.74434157154
2.731389918
2.71972661089
2.70922905689
2.69911582047
2.69000857226
2.68241957853
2.67480415954
2.66744258987
2.66165804831
2.65804063277
2.6569202734
2.65855310866
2.66219751494
2.66512151918
2.66276258203
2.65565534515
2.6467970407