/*--------------------------------*- C++ -*----------------------------------*\
| =========                 |                                                 |
| \\      /  F ield         | OpenFOAM: The Open Source CFD Toolbox           |
|  \\    /   O peration     | Version:  v1806                                 |
|   \\  /    A nd           | Web:      www.OpenFOAM.com                      |
|    \\/     M anipulation  |                                                 |
\*---------------------------------------------------------------------------*/
FoamFile
{
    version     2.0;
    format      ascii;
    class       surfaceScalarField;
    location    "600";
    object      phi;
}
// * * * * * * * * * * * * * * * * * * * * * * * * * * * * * * * * * * * * * //

dimensions      [0 3 -1 0 0 0 0];
oriented        oriented;


internalField   nonuniform List<scalar> 
12640
(
1.33336118519e-05
-1.33336945176e-05
2.07940838727e-05
-7.46056191347e-06
2.38783645711e-05
-3.08437418297e-06
1.64952989526e-05
7.38298082897e-06
-1.88494308333e-06
1.83801489594e-05
-3.0536175975e-05
2.86511389753e-05
-6.05854621926e-05
3.00492200263e-05
-9.10540610748e-05
3.04685437886e-05
-0.000121325588891
3.02714782703e-05
-0.000150918232243
2.95925983823e-05
-0.00017946428777
2.8546014269e-05
-0.000206702090215
2.7237764387e-05
-0.00023245973432
2.57576088138e-05
-0.000256638394313
2.41786269016e-05
-0.000279196649888
2.25582244325e-05
-0.000300136505282
2.09398256952e-05
-0.000319491400986
1.93548673252e-05
-0.000337316297862
1.78248694049e-05
-0.000353679750966
1.63634264874e-05
-0.000368657789399
1.49780123552e-05
-0.000382329353917
1.36715389595e-05
-0.000394773029024
1.24436498434e-05
-0.000406064807811
1.12917538059e-05
-0.000416276658464
1.02118258128e-05
-0.000425475689278
9.19900608138e-06
-0.000433723751008
8.24803703531e-06
-0.000441077343568
7.35356783111e-06
-0.000447587727732
6.51035939548e-06
-0.0004533011617
5.71340904251e-06
-0.000458259203782
4.95801707542e-06
-0.000462499031381
4.23980234051e-06
-0.000466053752523
3.5546957979e-06
-0.000468952659524
2.89888130897e-06
-0.000471221235738
2.26855038786e-06
-0.000472880838501
1.65957654063e-06
-0.000473948746059
1.06788132702e-06
-0.000474437496329
4.8872373963e-07
-0.000474355891981
-8.16307154219e-08
-0.00047370917756
-6.46740986422e-07
-0.000472504823037
-1.20438080682e-06
-0.000470755724767
-1.74912473029e-06
-0.000468474770719
-2.28098014613e-06
-0.000465673423352
-2.80137362781e-06
-0.000462361235694
-3.31221349049e-06
-0.000458545719661
-3.81554202689e-06
-0.000454232340207
-4.31340496775e-06
-0.000449424569881
-4.80779601865e-06
-0.000444123986712
-5.30060834938e-06
-0.000438330423606
-5.79358850391e-06
-0.000432042176444
-6.28827204234e-06
-0.000425256285065
-6.78591653361e-06
-0.000417968889318
-7.28742040173e-06
-0.00041017566447
-7.79324985027e-06
-0.000401872322427
-8.30336657854e-06
-0.000393055164966
-8.81718242182e-06
-0.000383721653561
-9.3335359414e-06
-0.00037387096002
-9.85071857883e-06
-0.000363504439971
-1.03665447052e-05
-0.000352625974432
-1.08784907619e-05
-0.000341242105615
-1.13838936989e-05
-0.000329361902792
-1.18802283279e-05
-0.000316996480202
-1.23654477936e-05
-0.000304158106205
-1.28383998689e-05
-0.000290858834342
-1.32992974759e-05
-0.000277108610471
-1.37502501904e-05
-0.000262912805679
-1.41958309085e-05
-0.000248269159829
-1.46436727168e-05
-0.000233164143674
-1.51050428948e-05
-0.000217568795769
-1.55953754686e-05
-0.000201434199766
-1.61346235579e-05
-0.000184687074862
-1.67471535465e-05
-0.000167226120497
-1.74609832999e-05
-0.000148920461945
-1.83056891804e-05
-0.000129614661644
-1.93058325196e-05
-0.000109151273796
-2.04634222649e-05
-8.7423428445e-05
-2.17278832914e-05
-6.44479849232e-05
-2.29754841806e-05
-4.04827470901e-05
-2.39652837248e-05
-1.68160934055e-05
-2.36667226172e-05
-1.68161381162e-05
9.77487539587e-06
-2.3108734901e-05
6.98792208954e-06
-4.67375683144e-06
-1.23540593381e-05
1.62575136138e-05
-4.05140871226e-05
3.55429445813e-05
-6.86401729324e-05
4.65061900028e-05
-9.55197754068e-05
5.55307052636e-05
-0.000124928168668
5.94575786021e-05
-0.000155167890965
6.07082332536e-05
-0.000185257409824
6.03609644297e-05
-0.000214568857629
5.89040148698e-05
-0.00024268852286
5.66656487388e-05
-0.000269345312804
5.38945249285e-05
-0.000294373711643
5.07859790093e-05
-0.000317688180048
4.74930677389e-05
-0.000339263143358
4.41331608919e-05
-0.00035911670688
4.07933630616e-05
-0.000377297427909
3.75355628083e-05
-0.000393873779301
3.44011955793e-05
-0.000408925985132
3.14156076113e-05
-0.000422539896526
2.85918990522e-05
-0.000434802559668
2.59341778589e-05
-0.000445799147158
2.3440212838e-05
-0.000455610943194
2.11035257857e-05
-0.000464314129553
1.89149876459e-05
-0.000471979148755
1.68640012129e-05
-0.000478670482322
1.49393458685e-05
-0.000484446703257
1.31297645087e-05
-0.000489360716373
1.14243474057e-05
-0.000493460099516
9.81276758244e-06
-0.000496787502716
8.28539465788e-06
-0.000499381070024
6.83334459046e-06
-0.000501274873212
5.44847276303e-06
-0.000502499311667
4.12329412341e-06
-0.000503081348011
2.85055979044e-06
-0.000503044017637
1.62221990184e-06
-0.000502406059707
4.29895835627e-07
-0.000501190015028
-7.27347502846e-07
-0.000499427722726
-1.84395075563e-06
-0.000497153877439
-2.9206128338e-06
-0.000494393687344
-3.96459863753e-06
-0.000491160535466
-4.98230304561e-06
-0.000487463602029
-5.97794120191e-06
-0.000483309730334
-6.95527153877e-06
-0.000478704041248
-7.91792998234e-06
-0.000473650098952
-8.86951024351e-06
-0.000468149962558
-9.81356849071e-06
-0.000462204200872
-1.07535832948e-05
-0.000455811942259
-1.16928937894e-05
-0.000448970955497
-1.26346005349e-05
-0.000441677807593
-1.35814464972e-05
-0.000433928082413
-1.45356667204e-05
-0.000425716697156
-1.54988320008e-05
-0.000417038288615
-1.64716832314e-05
-0.000407887691529
-1.74539898954e-05
-0.000398260462701
-1.84444360417e-05
-0.000388153452316
-1.94405725533e-05
-0.00037756535389
-2.04388418655e-05
-0.000366497212044
-2.14347128687e-05
-0.000354952800673
-2.24229271611e-05
-0.000342938835461
-2.33978853929e-05
-0.000330464925725
-2.43541633357e-05
-0.000317543227319
-2.52871728934e-05
-0.000304187709263
-2.61939434938e-05
-0.000290413008049
-2.70740256247e-05
-0.000276232804386
-2.79304797612e-05
-0.000261657720087
-2.87709424105e-05
-0.00024669269414
-2.96087249586e-05
-0.000231333906138
-3.04638583981e-05
-0.000215565280186
-3.13640281661e-05
-0.000199354629205
-3.23453024116e-05
-0.000182649829333
-3.34519807765e-05
-0.000165375629037
-3.47352121551e-05
-0.000147431982848
-3.62493639576e-05
-0.000128696341058
-3.80415042814e-05
-0.000109032933399
-4.012686122e-05
-8.8314017416e-05
-4.24468317644e-05
-6.64892681422e-05
-4.48002667822e-05
-4.38284697107e-05
-4.66261174135e-05
-2.13313406118e-05
-4.61638951013e-05
-3.81475076538e-05
-7.99771919882e-06
-1.51110409276e-05
-2.94668377146e-05
1.67952878973e-05
-5.53593348082e-05
4.21499677354e-05
-8.05288808473e-05
6.07124584108e-05
-0.000107808856546
7.37861377648e-05
-0.000134870703295
8.25925261218e-05
-0.000162473982426
8.706083329e-05
-0.000190152897591
8.83871241697e-05
-0.000217287702519
8.74957452572e-05
-0.000243407527344
8.50238153383e-05
-0.000268195902993
8.14540001165e-05
-0.000291459682961
7.71582805579e-05
-0.00031309958611
7.24258579904e-05
-0.000333085541854
6.74789993764e-05
-0.000351436652185
6.24842472677e-05
-0.000368205189448
5.75618764562e-05
-0.00038346414186
5.27944914106e-05
-0.000397297835956
4.82348659308e-05
-0.000409795144683
4.39128925404e-05
-0.000421044785052
3.98415156561e-05
-0.000431132237651
3.60216065334e-05
-0.000440137875283
3.24458265628e-05
-0.000448135960198
2.91015865449e-05
-0.000455194238583
2.59732418843e-05
-0.00046137393143
2.30436695822e-05
-0.000466729975298
2.02953652546e-05
-0.000471311409425
1.77111737264e-05
-0.000475161835641
1.52747486774e-05
-0.000478319907837
1.29708143027e-05
-0.000480819838087
1.07852993806e-05
-0.000482691894396
8.70537475371e-06
-0.000483962845725
6.71939787479e-06
-0.000484656290606
4.81671204875e-06
-0.000484792993698
2.98723579543e-06
-0.000484391808135
1.22100659125e-06
-0.000483471725085
-4.90214779807e-07
-0.000482056591402
-2.1425091847e-06
-0.000480163712733
-3.73685703652e-06
-0.000477800129464
-5.28422411076e-06
-0.00047497421542
-6.79054023173e-06
-0.000471694637443
-8.26190894266e-06
-0.00046796888427
-9.70372176334e-06
-0.000463803075515
-1.11211080273e-05
-0.000459201932869
-1.25190997697e-05
-0.000454168763457
-1.39027071266e-05
-0.000448705433313
-1.52769254761e-05
-0.000442812351567
-1.66466922171e-05
-0.000436488481427
-1.80167904638e-05
-0.000429731403258
-1.93917056008e-05
-0.000422537443628
-2.07754323994e-05
-0.000414901891325
-2.21712457048e-05
-0.000406819306607
-2.35814428183e-05
-0.000398283933299
-2.50070831079e-05
-0.000389290204082
-2.64477451566e-05
-0.000379833329136
-2.79013375603e-05
-0.000369909935807
-2.93639919903e-05
-0.00035951872438
-3.08300799704e-05
-0.000348661082816
-3.22923806961e-05
-0.000337341604135
-3.37424326942e-05
-0.000325568433456
-3.51710825401e-05
-0.000313353380917
-3.65692429246e-05
-0.000300711727778
-3.7928852717e-05
-0.000287661673245
-3.92440252673e-05
-0.000274223368851
-4.05123569138e-05
-0.000260417510839
-4.17363651902e-05
-0.000246263484859
-4.29249954883e-05
-0.000231777024082
-4.40952133178e-05
-0.000216967450366
-4.52734594143e-05
-0.000201834646946
-4.64968593305e-05
-0.000186365461334
-4.78145155429e-05
-0.000170530041094
-4.92874289894e-05
-0.000154278740737
-5.09865403889e-05
-0.000137539163491
-5.29889696365e-05
-0.00012021380041
-5.53668962638e-05
-0.000102179639749
-5.81610511481e-05
-8.32962837856e-05
-6.13302181979e-05
-6.34523044151e-05
-6.46442766154e-05
-4.26772765143e-05
-6.74011756608e-05
-2.12604025862e-05
-6.75808057364e-05
-5.94079309245e-05
-2.40985892976e-05
8.98737008457e-06
-5.18731326436e-05
4.45697713891e-05
-7.82880897041e-05
6.85648938486e-05
-0.000104592747899
8.70170918229e-05
-0.000130960035033
0.000100153402628
-0.000156905370354
0.000108537841072
-0.000182412557062
0.000112568000458
-0.00020725949937
0.000113234047193
-0.000231152167896
0.000111388394131
-0.000253849009298
0.000107720636702
-0.0002751891478
0.000102794118018
-0.000295088823321
9.70579350813e-05
-0.000313525954677
9.08629679082e-05
-0.000330522776112
8.44757990638e-05
-0.000346130454709
7.80919038021e-05
-0.000360416875791
7.18482752153e-05
-0.000373457673156
6.58352662136e-05
-0.000385330097252
6.01072672138e-05
-0.000396109137781
5.46919100599e-05
-0.000405865306079
4.95976606848e-05
-0.000414663557752
4.48198347725e-05
-0.000422562947581
4.03451926869e-05
-0.000429616719776
3.61553348985e-05
-0.000435872634596
3.22291325697e-05
-0.000441373403838
2.85444145598e-05
-0.000446157163654
2.5079100464e-05
-0.000450257943189
2.18119284932e-05
-0.000453706107869
1.87228881625e-05
-0.000456528769704
1.57934507287e-05
-0.00045875017764
1.30066813939e-05
-0.000460392115495
1.03472864245e-05
-0.000461474236084
7.8014916552e-06
-0.00046201409532
5.35654411737e-06
-0.000462027286751
3.0003994318e-06
-0.000461530080458
7.23772248128e-07
-0.000460542529481
-1.47779410511e-06
-0.000459078980713
-3.60608608888e-06
-0.000457148304912
-5.66756118252e-06
-0.000454761325498
-7.67123163205e-06
-0.000451927401603
-9.62449242597e-06
-0.000448655001959
-1.15343365954e-05
-0.000444951433216
-1.34073186753e-05
-0.000440822775727
-1.52497933401e-05
-0.000436273829362
-1.70680740932e-05
-0.00043130804547
-1.88685185978e-05
-0.000425927454119
-2.06575445354e-05
-0.000420132599495
-2.24415741597e-05
-0.000413922508564
-2.42269088614e-05
-0.000407294711396
-2.60195298638e-05
-0.000400245340141
-2.78248309428e-05
-0.000392769323306
-2.96472895019e-05
-0.000384860696372
-3.14900969718e-05
-0.000376513033839
-3.33547725979e-05
-0.000367720006427
-3.52407998487e-05
-0.000358476046613
-3.71453244533e-05
-0.000348777101113
-3.9062964943e-05
-0.00033862142357
-4.0985784807e-05
-0.000328010355368
-4.29034765825e-05
-0.000316949023258
-4.48037923399e-05
-0.000305446881703
-4.66732520023e-05
-0.000293518023083
-4.84981292891e-05
-0.000281181184018
-5.02657198573e-05
-0.000268459386098
-5.19658510794e-05
-0.000255379176222
-5.35925949701e-05
-0.000241969402782
-5.51461666231e-05
-0.000228259611993
-5.66348145158e-05
-0.000214277937489
-5.80769158847e-05
-0.000200048500276
-5.95029248943e-05
-0.000185588926727
-6.09564610014e-05
-0.000170906801653
-6.249666891e-05
-0.000155995811497
-6.41984473509e-05
-0.000140833106808
-6.61492734658e-05
-0.000125375136435
-6.84469684421e-05
-0.000109550759321
-7.1191301998e-05
-9.32543546142e-05
-7.44574851197e-05
-7.63407382749e-05
-7.82438634891e-05
-5.86311390008e-05
-8.23539051135e-05
-3.9922986765e-05
-8.61093571021e-05
-2.01070420467e-05
-8.7396780626e-05
-7.95149932966e-05
-3.34676600002e-05
4.24550642116e-05
-6.23667964909e-05
7.3468891433e-05
-9.01161937967e-05
9.63142696651e-05
-0.000116871308264
0.000113772185417
-0.000142560420205
0.000125842495159
-0.000167096695093
0.000133074097826
-0.000190540220924
0.000136011508953
-0.00021284248573
0.000135536294827
-0.000233922702846
0.000132468593869
-0.000253721407257
0.000127519323211
-0.000272214223016
0.000121286915306
-0.0002894117491
0.000114255442043
-0.000305351468456
0.000106802667556
-0.00032008771283
9.92120231474e-05
-0.000333682844558
9.16870147249e-05
-0.000346200833726
8.43662430996e-05
-0.000357703273709
7.73376844697e-05
-0.000368247352471
7.06513238579e-05
-0.000377885157769
6.43296928571e-05
-0.00038666375982
5.83762399199e-05
-0.000394625661044
5.27817128485e-05
-0.000401809352856
4.75288611044e-05
-0.000408249842994
4.25958013448e-05
-0.000413979097317
3.79583629932e-05
-0.00041902638856
3.35916816037e-05
-0.000423418567401
2.94712548811e-05
-0.000427180280345
2.55736166468e-05
-0.000430334154872
2.18767375978e-05
-0.000432900960006
1.83602303018e-05
-0.000434899782903
1.50054783435e-05
-0.000436348234269
1.17957112787e-05
-0.000437262666102
8.71589646027e-06
-0.00043765822581
5.75207603252e-06
-0.000437548400275
2.89054555071e-06
-0.000436945158162
1.20501437621e-07
-0.000435868532971
-2.55444795865e-06
-0.000434335830277
-5.13881753748e-06
-0.000432354289786
-7.64913031059e-06
-0.000429932935923
-1.00926142194e-05
-0.000427080390316
-1.2477066612e-05
-0.000423804711793
-1.48100437582e-05
-0.000420113140512
-1.70989184109e-05
-0.000416011936767
-1.93510255734e-05
-0.000411506239282
-2.15737998517e-05
-0.000406599923722
-2.37748624555e-05
-0.000401295459441
-2.59620368954e-05
-0.000395593779321
-2.81432823978e-05
-0.000389494181656
-3.03265344475e-05
-0.000382994291487
-3.25194480416e-05
-0.000376090107621
-3.47290426713e-05
-0.000368776165157
-3.6961259988e-05
-0.000361045835826
-3.92204542501e-05
-0.000352891784741
-4.15088518639e-05
-0.000344306585917
-4.38260268469e-05
-0.00033528348902
-4.61684498132e-05
-0.000325817312119
-4.85291703362e-05
-0.00031590541624
-5.08977094775e-05
-0.000305548693234
-5.32602283996e-05
-0.000294752496524
-5.56000181157e-05
-0.000283527415005
-5.78983625537e-05
-0.000271889819222
-6.01357542878e-05
-0.000259862083492
-6.22934847115e-05
-0.000247472409993
-6.43555538209e-05
-0.00023475427753
-6.63107565537e-05
-0.000221745307108
-6.81551662359e-05
-0.000208485864427
-6.98942862677e-05
-0.00019501718484
-7.15456245768e-05
-0.000181378479582
-7.31416591629e-05
-0.000167605354129
-7.47296154965e-05
-0.000153726130293
-7.63759217668e-05
-0.000139756846341
-7.81677603587e-05
-0.000125699924216
-8.02062246293e-05
-0.000111540431678
-8.26064900633e-05
-9.72352474394e-05
-8.54965155489e-05
-8.27031140358e-05
-8.89896475699e-05
-6.78090391486e-05
-9.3137968109e-05
-5.23412639628e-05
-9.78217085895e-05
-3.59600328768e-05
-0.000102490615845
-1.82815236515e-05
-0.00010507532204
-9.779653225e-05
-3.46073758196e-05
7.7062338509e-05
-6.57808323432e-05
0.000104642316029
-9.4479327727e-05
0.000125012743741
-0.000121201098046
0.000140493936906
-0.000146097345636
0.000150738725317
-0.000169278579478
0.000156255315263
-0.000190914067339
0.000157646981013
-0.000211107652802
0.000155729864622
-0.000229932471633
0.000151293396771
-0.000247457771992
0.000145044607147
-0.00026375557477
0.000137584701003
-0.00027890036862
0.000129400218118
-0.000292965376309
0.000120867656746
-0.000306018743996
0.000112265371651
-0.000318121134905
0.000103789385791
-0.000329325009933
9.55700976742e-05
-0.000339675211684
8.76878652056e-05
-0.000349210258365
8.01863490045e-05
-0.000357963824226
7.30832367232e-05
-0.000365966065158
6.63784584316e-05
-0.000373244631085
6.00602559969e-05
-0.00037982534143
5.41095483284e-05
-0.000385732572664
4.8503009174e-05
-0.000390989439152
4.32152057795e-05
-0.000395617847873
3.82200663512e-05
-0.000399638488067
3.3491870767e-05
-0.00040307080111
2.90059050287e-05
-0.000405932965184
2.47388765648e-05
-0.000408241934212
2.06691737387e-05
-0.000410013486459
1.67770044259e-05
-0.000411262280709
1.30444787293e-05
-0.000412001956311
9.45554444926e-06
-0.000412245417822
5.99550922432e-06
-0.000412005866103
2.65096478301e-06
-0.000411298524417
-5.86869729464e-07
-0.000410135002948
-3.71799885209e-06
-0.000408524515218
-6.74933460684e-06
-0.000406478161643
-9.69551322467e-06
-0.000404005495596
-1.25653095394e-05
-0.000401115357137
-1.5367234342e-05
-0.000397816012857
-1.81094172229e-05
-0.000394115089939
-2.07998704921e-05
-0.000390019435343
-2.34467092263e-05
-0.000385534934353
-2.60583298688e-05
-0.000380666302527
-2.86435232042e-05
-0.000375416864658
-3.12115036741e-05
-0.000369788338652
-3.37718372403e-05
-0.00036378064986
-3.63342521167e-05
-0.000357391806804
-3.89083199595e-05
-0.000350617875054
-4.1503003409e-05
-0.000343453086651
-4.4126077445e-05
-0.000335890120578
-4.67834495913e-05
-0.000327920580618
-4.94784212338e-05
-0.000319535682796
-5.2210954353e-05
-0.000310727143317
-5.497701915e-05
-0.000301488251139
-5.77680926461e-05
-0.00029181507549
-6.05709154008e-05
-0.000281707715366
-6.33676189985e-05
-0.000271171528499
-6.61362355045e-05
-0.00026021818535
-6.885173631e-05
-0.000248866491939
-7.14874782497e-05
-0.000237142872767
-7.40171344144e-05
-0.000225081314321
-7.64171426921e-05
-0.00021272310641
-7.86689948043e-05
-0.000200115616457
-8.07626864302e-05
-0.000187310984542
-8.26989483409e-05
-0.000174364772334
-8.44918668363e-05
-0.000161331646993
-8.61748145948e-05
-0.000148265414431
-8.77958780039e-05
-0.000135215576998
-8.94257893381e-05
-0.000122218858394
-9.11645090001e-05
-0.000109299112793
-9.31260004731e-05
-9.64674423704e-05
-9.54381906436e-05
-8.3706454418e-05
-9.82575336236e-05
-7.09602327944e-05
-0.000101735899653
-5.81142979863e-05
-0.000105983932164
-4.49597239045e-05
-0.000110976312336
-3.11128507591e-05
-0.000116337517081
-1.59789807125e-05
-0.000120209218014
-0.000113775530803
-3.39746625024e-05
0.000111037057131
-6.54450000785e-05
0.000136112654248
-9.41640753865e-05
0.000153731807189
-0.000120385455736
0.000166715302456
-0.000144332826072
0.000174686080543
-0.000166230679725
0.000178153154137
-0.000186319862716
0.000177736149459
-0.00020480362199
0.000174213609318
-0.000221855252263
0.000168345012158
-0.000237626257385
0.000160815596861
-0.000252247831812
0.000152206259377
-0.000265830817164
0.000142983186692
-0.000278465702813
0.000133502524873
-0.00029022395549
0.000124023606058
-0.000301160706041
0.00011472611735
-0.000311318232223
0.000105727604177
-0.000320729536265
9.70991489213e-05
-0.000329421474716
8.88782665394e-05
-0.000337417161001
8.10789015488e-05
-0.000344737595448
7.36988709484e-05
-0.000351402627666
6.67252658566e-05
-0.000357431420514
6.01383184561e-05
-0.000362842589026
5.39141546222e-05
-0.000367654158651
4.80267520323e-05
-0.000371883448129
4.24493321128e-05
-0.000375546942364
3.71553409129e-05
-0.000378660192258
3.21191303763e-05
-0.000381237765732
2.73164249511e-05
-0.000383293256428
2.27246387113e-05
-0.000384839346221
1.83230677863e-05
-0.000385887838746
1.40929439949e-05
-0.00038644968684
1.00173643615e-05
-0.000386535515032
6.08130798309e-06
-0.000386156978297
2.27239796975e-06
-0.000385326534243
-1.41734406738e-06
-0.000384053342442
-4.99122089475e-06
-0.000382345145713
-8.4575615256e-06
-0.000380211911181
-1.18287778779e-05
-0.000377662803364
-1.51144474443e-05
-0.000374706758678
-1.83233090516e-05
-0.000371352509209
-2.14636966802e-05
-0.000367608474966
-2.4543934653e-05
-0.000363482571804
-2.75726422731e-05
-0.000358981963042
-3.05589684598e-05
-0.000354112769465
-3.35127466009e-05
-0.000348879751722
-3.64445512266e-05
-0.000343285985819
-3.93656330087e-05
-0.000337332560881
-4.22877069827e-05
-0.000331018338438
-4.52225724911e-05
-0.000324339820244
-4.81815518482e-05
-0.000317291177411
-5.11747507898e-05
-0.000309864489996
-5.4210167758e-05
-0.000302050238935
-5.72927033729e-05
-0.000293838074602
-6.04231500323e-05
-0.000285217847149
-6.35972782582e-05
-0.00027618089434
-6.68050773202e-05
-0.000266721557811
-7.00302839918e-05
-0.000256838738966
-7.32504699753e-05
-0.000246537525923
-7.64374807019e-05
-0.000235830576452
-7.95587178544e-05
-0.000224739250897
-8.25788357455e-05
-0.000213294495313
-8.54619217822e-05
-0.000201536696169
-8.81749734266e-05
-0.000189516019292
-9.0689703132e-05
-0.000177290855491
-9.29878815699e-05
-0.00016492623994
-9.50635950804e-05
-0.000152494209664
-9.69239284308e-05
-0.000140065910633
-9.86031446651e-05
-0.000127713753242
-0.000100148066891
-0.000115510613412
-0.000101628960491
-0.000103515436223
-0.000103159718044
-9.17702059775e-05
-0.000104871262353
-8.03100354249e-05
-0.000106898393
-6.91404649238e-05
-0.000109427135981
-5.82282677749e-05
-0.000112648127936
-4.7482812435e-05
-0.000116729419075
-3.67159865629e-05
-0.000121743166242
-2.55694972252e-05
-0.000127484033865
-1.32993745345e-05
-0.000132479371745
-0.000127074918082
-3.26736884661e-05
0.000143710695533
-6.32320266457e-05
0.000166670978038
-9.11373023565e-05
0.000181637071262
-0.000116419669309
0.000191997657007
-0.000139264367608
0.000197530766024
-0.000159920880749
0.000198809654338
-0.000178660470857
0.000196475726546
-0.000195736944353
0.000191290069545
-0.000211376595543
0.000183984649662
-0.000225774235225
0.000175213222284
-0.000239090594261
0.000165522603474
-0.000251452686644
0.00015534526339
-0.000262956755639
0.000145006577402
-0.000273673254681
0.000134740087845
-0.000283652766143
0.000124705610779
-0.000292931785441
0.000115006604688
-0.000301537620128
0.000105704964111
-0.000309492069104
9.68326953535e-05
-0.000316813887495
8.84006991795e-05
-0.00032352024385
8.04052060026e-05
-0.000329627448497
7.28324487331e-05
-0.000335151218341
6.56620661064e-05
-0.000340106688445
5.88696021505e-05
-0.000344508315913
5.24283565415e-05
-0.000348369764984
4.63107578088e-05
-0.000351703819648
4.04893717203e-05
-0.000354522339822
3.49376260977e-05
-0.000356836266767
2.9630326742e-05
-0.000358655686307
2.45440322748e-05
-0.000359989936024
1.96572906107e-05
-0.000360847656927
1.49506369084e-05
-0.000361236766562
1.04064446188e-05
-0.000361164958286
6.00946941392e-06
-0.000360641191109
1.74859932804e-06
-0.000359675037302
-2.38352953388e-06
-0.000358274735129
-6.3915545086e-06
-0.000356447245314
-1.02850826483e-05
-0.000354200783335
-1.40752710579e-05
-0.000351544065719
-1.77711961867e-05
-0.000348486279767
-2.13811260551e-05
-0.000345036937594
-2.49130698478e-05
-0.000341205672354
-2.83752308315e-05
-0.000337001972659
-3.17763728854e-05
-0.000332434856808
-3.51261152084e-05
-0.000327512490166
-3.84351441842e-05
-0.000322241754823
-4.17153175705e-05
-0.000316627791617
-4.49796273522e-05
-0.000310673547763
-4.82419821613e-05
-0.000304379378824
-5.15167729971e-05
-0.000297742766513
-5.4818196044e-05
-0.000290758225954
-5.81593235681e-05
-0.000283417473373
-6.15509529348e-05
-0.000275709910553
-6.50002991451e-05
-0.00026762348472
-6.85096091518e-05
-0.00025914587858
-7.20749179543e-05
-0.000250266026115
-7.56849635226e-05
-0.000240976070143
-7.93202737905e-05
-0.000231273220125
-8.2953353763e-05
-0.000221161935942
-8.65487985519e-05
-0.000210655699104
-9.00649881002e-05
-0.000199778383273
-9.34561847739e-05
-0.000188565966693
-9.66743713194e-05
-0.000177065658731
-9.96753140705e-05
-0.00016533754352
-0.000102417851051
-0.000153452481481
-0.000104872976075
-0.000141489136275
-0.000107026973077
-0.000129538615258
-0.000108874482159
-0.000117690949623
-0.000110450843429
-0.000106037018203
-0.000111802031499
-9.46746335061e-05
-0.000112991378802
-8.36919912708e-05
-0.00011414239432
-7.31485811887e-05
-0.000115414706685
-6.31025268045e-05
-0.000116944481682
-5.35818629937e-05
-0.000118947833225
-4.45734849374e-05
-0.000121656539378
-3.60096379488e-05
-0.000125293296627
-2.77243968819e-05
-0.000130028438856
-1.94232175551e-05
-0.000135785240759
-1.0288368945e-05
-0.000141614243768
-0.000137363302939
-3.08779995415e-05
0.000174588752956
-5.99764345493e-05
0.000195769423433
-8.65856652991e-05
0.000208246298819
-0.000110632919242
0.000216044902932
-0.000132259471134
0.000219157308019
-0.000151699950005
0.000218250122509
-0.000169225605255
0.000214001370568
-0.000185105188894
0.000207169641465
-0.00019958329497
0.000198462743439
-0.000212869396394
0.000188499310755
-0.000225132901377
0.000177786094771
-0.000236504039715
0.000166716387264
-0.000247078705538
0.000155581227945
-0.000256925417434
0.000144586783635
-0.000266092632906
0.000133872809319
-0.000274615191014
0.000123529145056
-0.000282519286812
0.000113609041395
-0.000289825899881
0.000104139289182
-0.000296552911031
9.51276904221e-05
-0.000302716260766
8.65685352298e-05
-0.000308330494121
7.84466610424e-05
-0.0003134089652
7.07405156506e-05
-0.000317963888181
6.34245031339e-05
-0.000322006345218
5.64707910968e-05
-0.00032554630715
4.98506967237e-05
-0.000328592688365
4.35357292674e-05
-0.000331153431509
3.7498344788e-05
-0.000333235612583
3.17124824107e-05
-0.000334845573378
2.61539666052e-05
-0.000335989091042
2.08007806144e-05
-0.000336671508474
1.56330252603e-05
-0.000336897600458
1.06325059809e-05
-0.000336671517831
5.78335417996e-06
-0.000335998785212
1.07583368988e-06
-0.000334887669698
-3.49467813226e-06
-0.000333345514555
-7.93374255055e-06
-0.000331377231137
-1.22533987646e-05
-0.000328989883738
-1.64626510178e-05
-0.000326191968517
-2.05691438285e-05
-0.000322993145263
-2.45799816405e-05
-0.000319403970074
-2.85022772727e-05
-0.000315435619642
-3.23436134703e-05
-0.000311099568203
-3.61124564955e-05
-0.000306407196157
-3.9818519491e-05
-0.000301369318907
-4.34730537319e-05
-0.000295995637059
-4.70890319003e-05
-0.000290294123368
-5.06811737387e-05
-0.000284270383889
-5.42657546436e-05
-0.000277927053441
-5.78601368185e-05
-0.000271263304402
-6.14819788615e-05
-0.00026427457289
-6.51480892887e-05
-0.000256952613084
-6.88729473637e-05
-0.000249285928739
-7.26670184655e-05
-0.000241260733809
-7.65348393527e-05
-0.000232862336328
-8.04733508534e-05
-0.000224076784837
-8.44705505189e-05
-0.000214893579915
-8.85035140754e-05
-0.000205307665847
-9.2539303054e-05
-0.000195322442776
-9.65340564975e-05
-0.000184952074802
-0.000100435390681
-0.00017422263661
-0.000104185657373
-0.000163175813199
-0.000107721228761
-0.000151865753688
-0.000110985407871
-0.000140363251814
-0.000113920387016
-0.000128753164169
-0.000116483098477
-0.000117128064709
-0.000118652107601
-0.000105599254
-0.000120403328362
-9.42809476787e-05
-0.0001217691856
-8.32839809758e-05
-0.000122799034136
-7.27273375557e-05
-0.000123548059276
-6.27401737718e-05
-0.000124129594982
-5.34039799996e-05
-0.000124750937671
-4.47989322762e-05
-0.00012554956527
-3.6979136565e-05
-0.000126767664407
-2.99523609158e-05
-0.000128683348062
-2.36719207359e-05
-0.000131573770141
-1.79911298992e-05
-0.000135709256561
-1.26830569923e-05
-0.000141093340609
-6.94569656633e-06
-0.000147351633108
-0.000144309009746
-2.87981045949e-05
0.00020338682566
-5.61587704617e-05
0.000223130084774
-8.12273084559e-05
0.000233314833227
-0.000103880062763
0.000238697651566
-0.000124225585488
0.000239502823449
-0.000142473345627
0.000236497874276
-0.000158878424413
0.000230406440201
-0.000173702384774
0.000221993591959
-0.000187185933514
0.000211946281605
-0.000199534902064
0.000200848267975
-0.000210914537971
0.000189165718561
-0.000221450965332
0.000177252801678
-0.000231236926386
0.000165367175197
-0.000240339288526
0.000153689131098
-0.000248806349359
0.000142339854595
-0.000256673833655
0.000131396612925
-0.000263969229228
0.000120904419697
-0.000270714603124
0.00011088464501
-0.000276928263853
0.00010134133234
-0.000282625667001
9.2265918888e-05
-0.000287819892055
8.36408659799e-05
-0.000292521918287
7.54425211825e-05
-0.000296740833422
6.76433969779e-05
-0.000300484038565
6.02139743196e-05
-0.000303757469542
5.31241050404e-05
-0.000306565834637
4.63440708171e-05
-0.000308912855188
3.98453407073e-05
-0.000310801476509
3.36010778551e-05
-0.000312234080342
2.75865431591e-05
-0.000313212700293
2.17793717016e-05
-0.000313739258994
1.61595532182e-05
-0.000313815555782
1.07087699055e-05
-0.000313442187024
5.40995126189e-06
-0.000312617471505
2.51082404912e-07
-0.000311351287585
-4.76089739257e-06
-0.000309653389421
-9.63167561007e-06
-0.000307524547911
-1.43822748678e-05
-0.000304970752352
-1.90164808878e-05
-0.000302000370632
-2.35395596708e-05
-0.000298623573805
-2.79568123992e-05
-0.000294851978719
-3.22739061994e-05
-0.000290698352816
-3.64972731212e-05
-0.00028617628013
-4.06345629723e-05
-0.000281299741186
-4.46950922576e-05
-0.000276082579852
-4.86902490924e-05
-0.00027053784411
-5.26338018763e-05
-0.000264677008615
-5.65420438132e-05
-0.000258509114675
-6.04336835565e-05
-0.000252039905068
-6.43293818451e-05
-0.000245271051683
-6.82508681184e-05
-0.000238199611476
-7.22195658081e-05
-0.000230817934115
-7.62546613701e-05
-0.000223113952954
-8.03710365695e-05
-0.000215072241591
-8.45765877295e-05
-0.000206675749471
-8.8869880059e-05
-0.000197907100125
-9.323923671e-05
-0.00018875287435
-9.76577765348e-05
-0.000179205161133
-0.000102087052606
-0.000169265823925
-0.000106473429661
-0.000158949831925
-0.000110751418614
-0.000148284732508
-0.000114850792431
-0.000137318857938
-0.000118687139377
-0.000126113083078
-0.000122191219063