/*--------------------------------*- C++ -*----------------------------------*\
| =========                 |                                                 |
| \\      /  F ield         | OpenFOAM: The Open Source CFD Toolbox           |
|  \\    /   O peration     | Version:  v1806                                 |
|   \\  /    A nd           | Web:      www.OpenFOAM.com                      |
|    \\/     M anipulation  |                                                 |
\*---------------------------------------------------------------------------*/
FoamFile
{
    version     2.0;
    format      ascii;
    class       surfaceScalarField;
    location    "600";
    object      phi;
}
// * * * * * * * * * * * * * * * * * * * * * * * * * * * * * * * * * * * * * //

dimensions      [0 3 -1 0 0 0 0];
oriented        oriented;


internalField   nonuniform List<scalar> 
12640
(
2.36773276745e-05
-2.36773279478e-05
3.41281409472e-05
-1.04508142505e-05
3.71896097905e-05
-3.06146986895e-06
2.78108209129e-05
9.37878801576e-06
5.94747917696e-06
2.18633407424e-05
-2.63499554693e-05
3.22974334822e-05
-5.87240825021e-05
3.23741259955e-05
-9.03592260791e-05
3.16351425864e-05
-0.000121408014242
3.10487872073e-05
-0.000151602146107
3.01941309416e-05
-0.000180650128524
2.90479815384e-05
-0.000208326067485
2.76759381229e-05
-0.000234477408807
2.6151340529e-05
-0.000259016880931
2.45394713671e-05
-0.000281910353102
2.28934714484e-05
-0.000303164513414
2.1254159617e-05
-0.000322815750409
1.96512363241e-05
-0.000340920743166
1.81049921034e-05
-0.000357548863423
1.66281196179e-05
-0.000372776288486
1.52274244328e-05
-0.000386681620176
1.39053310643e-05
-0.00039934276398
1.26611431828e-05
-0.000410834819626
1.14920550217e-05
-0.00042122875445
1.03939341983e-05
-0.000430590661915
9.36190682983e-06
-0.00043898144249
8.39077993205e-06
-0.000446456776842
7.4753336939e-06
-0.000453067290156
6.61051264271e-06
-0.000458858829757
5.7915389082e-06
-0.000463872795248
5.01396478265e-06
-0.000468146473898
4.27367791357e-06
-0.000471713352206
3.56687755244e-06
-0.000474603353326
2.89000033267e-06
-0.000476842813151
2.23945901394e-06
-0.000478454118551
1.61130455219e-06
-0.00047945578727
1.00166785467e-06
-0.00047986132308
4.05534912464e-07
-0.000479680226777
-1.81097208491e-07
-0.000478920188957
-7.60038753088e-07
-0.000477592124882
-1.32806501249e-06
-0.000475711489433
-1.88063641184e-06
-0.000473293503962
-2.41798643448e-06
-0.000470351868148
-2.94163680109e-06
-0.000466898315859
-3.45355327438e-06
-0.000462942486184
-3.95583068546e-06
-0.00045849190948
-4.45057770958e-06
-0.000453552047813
-4.93986269767e-06
-0.000448126377277
-5.42567156053e-06
-0.00044221651722
-5.90986110818e-06
-0.000435822416391
-6.39410187255e-06
-0.00042894260602
-6.87981144357e-06
-0.00042157452601
-7.36808107616e-06
-0.000413714924771
-7.85960233503e-06
-0.000405360324913
-8.3546009462e-06
-0.000396507537886
-8.85278814793e-06
-0.000387154199885
-9.35333911415e-06
-0.000377299291166
-9.85490986528e-06
-0.000366943590477
-1.03557018275e-05
-0.000356090008259
-1.08535833896e-05
-0.000344743735228
-1.13462741929e-05
-0.000332912139271
-1.18315971518e-05
-0.000320604341809
-1.23077986465e-05
-0.000307830406879
-1.27739361435e-05
-0.000294600080463
-1.32303276176e-05
-0.000280921027288
-1.36790544028e-05
-0.000266796520643
-1.41245078577e-05
-0.000252222552462
-1.45739694173e-05
-0.000237184367862
-1.50381858179e-05
-0.000221652480774
-1.55318883258e-05
-0.000205578290512
-1.60741914867e-05
-0.000188889644149
-1.66886476021e-05
-0.000171486890856
-1.74027545377e-05
-0.000153240426324
-1.82464657977e-05
-0.000133993280167
-1.924714746e-05
-0.000113578547048
-2.04147344702e-05
-9.18635963339e-05
-2.17149521318e-05
-6.88107675411e-05
-2.3052830166e-05
-4.45558513501e-05
-2.42549176963e-05
-1.99761935727e-05
-2.45796601336e-05
-1.99761948872e-05
1.24936152163e-05
-3.61709480277e-05
1.06488739273e-05
-8.60607577558e-06
-9.30530020151e-06
1.68927031424e-05
-3.8517915804e-05
3.85914030831e-05
-6.65927144846e-05
4.9938138871e-05
-9.35359021648e-05
5.9240620518e-05
-0.000123469910571
6.23081337043e-05
-0.000154509169608
6.26744008846e-05
-0.000185287692046
6.18273089076e-05
-0.000215169934684
6.00763728312e-05
-0.000243776159311
5.76542054405e-05
-0.000270860343093
5.476012118e-05
-0.000296273411983
5.15644087258e-05
-0.000319940542136
4.82066008265e-05
-0.00034184321532
4.47961439718e-05
-0.000362004164136
4.14151077647e-05
-0.000380474876211
3.8121947763e-05
-0.000397325519952
3.49556351932e-05
-0.00041263709649
3.19396955355e-05
-0.000426495548519
2.90858758161e-05
-0.000438987514036
2.63972959642e-05
-0.000450197409128
2.38710376246e-05
-0.000460205544917
2.15001901878e-05
-0.000469087023161
1.92754117774e-05
-0.000476911197369
1.71860803983e-05
-0.000483741530872
1.52211127463e-05
-0.000489635720752
1.3369522908e-05
-0.000494645989858
1.16207810236e-05
-0.000498819473455
9.96502180125e-06
-0.000502198650468
8.3931410249e-06
-0.000504821787468
6.89681416298e-06
-0.000506723367759
5.46845701823e-06
-0.000507934479624
4.10111139108e-06
-0.000508483034277
2.78801277893e-06
-0.000508393187009
1.5214564182e-06
-0.000507684649881
2.93129778786e-07
-0.000506383768001
-8.95347877882e-07
-0.000504526974619
-2.03789157897e-06
-0.00050214966297
-3.13735134534e-06
-0.000499277108498
-4.20062050515e-06
-0.000495924155943
-5.23358993804e-06
-0.000492101801647
-6.2403417783e-06
-0.00048781882717
-7.22461227138e-06
-0.000483082311495
-8.19007002171e-06
-0.000477897761392
-9.14038180227e-06
-0.000472269132261
-1.00792079354e-05
-0.000466198830885
-1.10101651066e-05
-0.000459687740554
-1.19367630066e-05
-0.000452735288982
-1.28623137332e-05
-0.000445339576256
-1.37898157354e-05
-0.000437497573282
-1.47218154911e-05
-0.000429205399838
-1.56602556811e-05
-0.000420458682354
-1.66063209166e-05
-0.000411252986893
-1.75602975923e-05
-0.000401584310417
-1.85214657475e-05
-0.000391449606308
-1.94880444354e-05
-0.000380847306546
-2.04572107788e-05
-0.00036977779612
-2.14252134927e-05
-0.000358243783871
-2.23875968181e-05
-0.000346250511156
-2.33395481725e-05
-0.000333805732965
-2.42763765475e-05
-0.000320919409231
-2.51941236635e-05
-0.000307603044652
-2.60903019462e-05
-0.000293868623623
-2.69647499392e-05
-0.000279727097703
-2.78205815564e-05
-0.000265186398771
-2.86652080817e-05
-0.000250248953057
-2.95114163623e-05
-0.00023490870325
-3.03784369033e-05
-0.000219147739468
-3.1292853327e-05
-0.000202932556256
-3.22893759515e-05
-0.000186210157534
-3.34110475284e-05
-0.000168904537541
-3.47083757525e-05
-0.000150914372887
-3.62366316482e-05
-0.000132113839999
-3.80476815599e-05
-0.000112359226879
-4.01693488011e-05
-9.1504296745e-05
-4.25698834646e-05
-6.94470687057e-05
-4.51100594122e-05
-4.6319856412e-05
-4.73821311577e-05
-2.29132070086e-05
-4.79863108377e-05
-4.28894028801e-05
-9.30451817462e-06
-2.68664264041e-05
-3.15563065482e-05
1.36457130603e-05
-5.69713982214e-05
4.23077948987e-05
-8.12112807058e-05
6.28312853897e-05
-0.000108023584517
7.67504423011e-05
-0.000134609019542
8.58260550606e-05
-0.00016217316152
8.98722751487e-05
-0.000190169882819
9.06711216293e-05
-0.00021772229656
8.93797220766e-05
-0.000244263350786
8.66174264798e-05
-0.000269449173042
8.28400271085e-05
-0.000293082530414
7.83934779652e-05
-0.000315066748114
7.35486258337e-05
-0.000335375548657
6.85154007808e-05
-0.000354031366406
6.34519611263e-05
-0.000371088940542
5.84726813105e-05
-0.000386622851003
5.36558576267e-05
-0.000400718249747
4.90510333436e-05
-0.000413464206193
4.46856513769e-05
-0.000424949141593
4.05708106136e-05
-0.000435257875198
3.67060289515e-05
-0.000444469867484
3.30830292932e-05
-0.000452658318693
2.968864076e-05
-0.00045988985387
2.65069463155e-05
-0.000466224592615
2.35208184795e-05
-0.000471716457616
2.07129770785e-05
-0.000476413618986
1.80666835768e-05
-0.000480359002855
1.55661641828e-05
-0.000483590817921
1.31968361196e-05
-0.000486143082815
1.094540516e-05
-0.000488046148831
8.79987937651e-06
-0.000489327162064
6.74946943402e-06
-0.000490010323234
4.78427169341e-06
-0.000490117159223
2.89484788178e-06
-0.000489668071882
1.07236814586e-06
-0.000488685339068
-6.89603970595e-07
-0.000487193050276
-2.38763764364e-06
-0.000485207889002
-4.02305382118e-06
-0.000482739652296
-5.60558905574e-06
-0.000479799052901
-7.14122089634e-06
-0.000476396799171
-8.63584469883e-06
-0.000472542382822
-1.00947591473e-05
-0.000468243917413
-1.15230787354e-05
-0.000463508101887
-1.29258865901e-05
-0.000458340187065
-1.43082977001e-05
-0.000452743934832
-1.56754612307e-05
-0.000446721586389
-1.70325146474e-05
-0.000440273858764
-1.83844917145e-05
-0.000433399988596
-1.97361850208e-05
-0.00042609784024
-2.10919651981e-05
-0.000418364093351
-2.24555635241e-05
-0.000410194520628
-2.38298295367e-05
-0.000401584360769
-2.5216481949e-05
-0.000392528782918
-2.66158766055e-05
-0.000383023429184
-2.80268206872e-05
-0.000373065009909
-2.94464649066e-05
-0.000362651915368
-3.0870306559e-05
-0.000351784795982
-3.22923341104e-05
-0.000340467054382
-3.37053396916e-05
-0.000328705187002
-3.51014168149e-05
-0.000316508909251
-3.64726555988e-05
-0.000303890998129
-3.78120360707e-05
-0.000290866795715
-3.91145056752e-05
-0.000277453317348
-4.03782296005e-05
-0.000263667931294
-4.16059689239e-05
-0.000249526596098
-4.28065445614e-05
-0.000235041651976
-4.39963617782e-05
-0.000220219094517
-4.52009956208e-05
-0.000205055618418
-4.64563306827e-05
-0.000189535232067
-4.78097635213e-05
-0.000173625520319
-4.93207604819e-05
-0.000157274211257
-5.10596859842e-05
-0.000140406170773
-5.31046732791e-05
-0.000122920812916
-5.55330405416e-05
-0.000104690371761
-5.83997910605e-05
-8.55654131277e-05
-6.16948431904e-05
-6.54092446016e-05
-6.52662289175e-05
-4.41796312561e-05
-6.86117454604e-05
-2.21480415407e-05
-7.00179018259e-05
-6.5037444951e-05
-2.79973723004e-05
1.1309402743e-06
-5.54704766799e-05
4.11188168692e-05
-8.11049246602e-05
6.79422427775e-05
-0.000106575767883
8.83021283979e-05
-0.000132308212213
0.000102482886309
-0.000157758338909
0.000111276181375
-0.000183080842697
0.00011519477853
-0.000208002712046
0.000115592990554
-0.000232106467773
0.000113483477366
-0.000255076454906
0.000109587413159
-0.000276712225966
0.000104475797704
-0.000296911474514
9.85927260328e-05
-0.000315644256454
9.22814072834e-05
-0.000332929828432
8.58009722547e-05
-0.000348818381355
7.93405135369e-05
-0.000363377468359
7.3031767789e-05
-0.000376682429407
6.69608181421e-05
-0.00038881001558
6.11786189705e-05
-0.000399834440616
5.57100758593e-05
-0.000409825174031
5.05615434594e-05
-0.000418845912694
4.57267670372e-05
-0.000426954300866
4.11914168709e-05
-0.000434202091919
3.69364312096e-05
-0.000440635546317
3.29404000872e-05
-0.000446295936534
2.91812080602e-05
-0.000451220083156
2.56371230363e-05
-0.000455440880488
2.22874802303e-05
-0.00045898778985
1.91130728323e-05
-0.000461887289843
1.60963353816e-05
-0.000464163294909
1.32214094569e-05
-0.000465837567359
1.04741510345e-05
-0.000466930071844
7.84197308424e-06
-0.000467459024616
5.31322360193e-06
-0.000467440848682
2.8766710426e-06
-0.000466892424746
5.23943281933e-07
-0.000465835630419
-1.74639925346e-06
-0.000464287458486
-3.93581053588e-06
-0.000462258404372
-6.05210892046e-06
-0.000459760819783
-8.10317463099e-06
-0.000456806016593
-1.00960250969e-05
-0.000453404472502
-1.20373898006e-05
-0.000449565528456
-1.39337042279e-05
-0.000445297295094
-1.5791313131e-05
-0.00044060657708
-1.76166056608e-05
-0.000435498790641
-1.94160851945e-05
-0.000429977877701
-2.11963752501e-05
-0.000424046231253
-2.29641621721e-05
-0.000417704651076
-2.47260729952e-05
-0.000410952350042
-2.64884871584e-05
-0.000403787032069
-2.82572843035e-05
-0.000396205060904
-3.00375358228e-05
-0.000388201736008
-3.1833155598e-05
-0.000379771685079
-3.36465340493e-05
-0.000370909373922
-3.54781889684e-05
-0.000361609722259
-3.73264735645e-05
-0.000351868800993
-3.91873874232e-05
-0.000341684572523
-4.10545362888e-05
-0.000331057623608
-4.29192843214e-05
-0.000319991827114
-4.47711374892e-05
-0.000308494866613
-4.659837865e-05
-0.000296578553424
-4.83889701209e-05
-0.000284258858285
-5.01317325645e-05
-0.000271555610915
-5.18177543893e-05
-0.000258491795342
-5.34420465273e-05
-0.000245092423278
-5.50053423207e-05
-0.000231382951639
-5.65160175299e-05
-0.000217387390726
-5.79919239899e-05
-0.000203125625308
-5.94627623234e-05
-0.000188610876448
-6.09710807907e-05
-0.000173846654213
-6.2573986978e-05
-0.000158822890809
-6.43445250696e-05
-0.000143512615197
-6.63699627414e-05
-0.000127868351522
-6.87489380617e-05
-0.000111816568403
-7.15848247296e-05
-9.52500353772e-05
-7.49663251167e-05
-7.80240950661e-05
-7.89207844714e-05
-5.99696060408e-05
-8.33207189065e-05
-4.08714768921e-05
-8.7709875517e-05
-2.06746014483e-05
-9.02147780278e-05
-8.57120469491e-05
-3.64157792497e-05
3.75467245135e-05
-6.55520783839e-05
7.02551166842e-05
-9.30276856224e-05
9.54178499884e-05
-0.000119297075823
0.000114571518365
-0.000144493931391
0.000127679741569
-0.000168628830368
0.000135411080025
-0.000191872450237
0.000138438398062
-0.000214155935022
0.000137876475
-0.000235337501766
0.000134665043762
-0.000255312014889
0.000129561925924
-0.000274023724705
0.000123187507145
-0.000291463891785
0.000116032892723
-0.000307658679319
0.00010847619441
-0.000322655866864
0.000100798159377
-0.000336513862615
9.31985088486e-05
-0.000349293978599
8.5811883319e-05
-0.000361055718552
7.87225576228e-05
-0.00037185436844
7.19772683732e-05
-0.000381740121322
6.55958282384e-05
-0.000390758093075
5.95795146961e-05
-0.00039894876841
5.39174418362e-05
-0.000406348589463
4.85912373737e-05
-0.000412990532547
4.35783737232e-05
-0.000418904608151
3.88544751042e-05
-0.000424118270828
3.43948701264e-05
-0.00042865674952
3.01756010967e-05
-0.0004325433179
2.61740479492e-05
-0.000435799524932
2.23692791774e-05
-0.000438445404601
1.87422143298e-05
-0.000440499671372
1.5275675477e-05
-0.000441979918168
1.19543970411e-05
-0.000442902829633
8.76488372574e-06
-0.000443284314204
5.69470730231e-06
-0.000443139249656
2.73160558893e-06
-0.000442481475157
-1.33832149502e-07
-0.000441331731017
-2.8961443363e-06
-0.00043970830519
-5.55923732292e-06
-0.000437620898224
-8.13951685471e-06
-0.00043508067568
-1.06433981606e-05
-0.00043209843862
-1.30782631477e-05
-0.000428684407295
-1.54514221354e-05
-0.000424847959557
-1.777015298e-05
-0.000420597457485
-2.00418162342e-05
-0.000415940095726
-2.2273968457e-05
-0.00041088175173
-2.44744302466e-05
-0.000405426837272
-2.66512907704e-05
-0.000399578162914
-2.88128376123e-05
-0.000393336833979
-3.09674030224e-05
-0.000386702201291
-3.31231209627e-05
-0.000379671892189
-3.52875945333e-05
-0.000372241947625
-3.74674815436e-05
-0.000364407088533
-3.96680158646e-05
-0.000356161128586
-4.18924952037e-05
-0.000347497539187
-4.41417795967e-05
-0.000338410158942
-4.64138550755e-05
-0.00032889402282
-4.87035248352e-05
-0.000318946268875
-5.10022915592e-05
-0.000308567068308
-5.32984862344e-05
-0.000297760502428
-5.55777047451e-05
-0.000286535309818
-5.78235726462e-05
-0.00027490544046
-6.00188408818e-05
-0.000262890288862
-6.2146885562e-05
-0.000250514612759
-6.41934318945e-05
-0.000237807984404
-6.61486762662e-05
-0.000224803868274
-6.80094598222e-05
-0.000211538017362
-6.97818697852e-05
-0.000198047114644
-7.14828280263e-05
-0.00018436563586
-7.31442423941e-05
-0.000170523772092
-7.48129458107e-05
-0.000156544932572
-7.65528277163e-05
-0.000142441144892
-7.84483139261e-05
-0.000128209891226
-8.06012175424e-05
-0.000113830920871
-8.31279095019e-05
-9.92591104197e-05
-8.61566362155e-05
-8.441332949e-05
-8.98121070373e-05
-6.91627394716e-05
-9.4171375433e-05
-5.33291042607e-05
-9.91543549261e-05
-3.66038334275e-05
-0.00010443514709
-1.86846289425e-05
-0.000108133983394
-0.00010439667623
-3.62132062396e-05
7.37599276706e-05
-6.82115399453e-05
0.00010225344997
-9.70747488934e-05
0.00012428105873
-0.000123641323109
0.000141138092341
-0.000148265016727
0.000152303434929
-0.000171185617591
0.000158331680628
-0.000192668483372
0.000159921263586
-0.000212826646792
0.000158034638163
-0.00023170932007
0.000153547716777
-0.000249361150072
0.000147213755651
-0.000265833563968
0.000139659920753
-0.000281185887661
0.00013138521611
-0.00029548069933
0.000122771005755
-0.000308778724306
0.000114096184008
-0.000321135280275
0.000105555064455
-0.000332598717622
9.7275320283e-05
-0.000343210452541
8.93342921408e-05
-0.000353005929006
8.17727444174e-05
-0.00036201591735
7.46058161422e-05
-0.000370267755425
6.78313523118e-05
-0.000377786337798
6.143602373e-05
-0.000384594804559
5.53997036349e-05
-0.000390714965212
4.9698533856e-05
-0.000396167527418
4.43070367666e-05
-0.00040097220324
3.91995453817e-05
-0.000405147752253
3.43511495142e-05
-0.000408712003653
2.97382987248e-05
-0.000411681887324
2.53391621902e-05
-0.000414073493936
2.11338202485e-05
-0.000415902161588
1.71043423987e-05
-0.000417182539516
1.32347741991e-05
-0.000417928623026
9.51096641772e-06
-0.00041815410276
5.92018617844e-06
-0.00041787383268
2.45133460945e-06
-0.00041710562846
-9.0203729594e-07
-0.000415861363804
-4.14040992905e-06
-0.000414150822155
-7.2697799176e-06
-0.000411988219081
-1.03021208866e-05
-0.000409385566179
-1.32460520294e-05
-0.00040635407222
-1.61097580865e-05
-0.000402904309366
-1.89011859787e-05
-0.000399046153629
-2.16283097202e-05
-0.000394788637555
-2.42993333215e-05
-0.000390139763302
-2.69228437389e-05
-0.000385106293015
-2.95079015739e-05
-0.00037969352911
-3.20640557343e-05
-0.000373905100834
-3.46012669627e-05
-0.000367742779583
-3.71297253701e-05
-0.000361206351357
-3.9659550306e-05
-0.000354293579237
-4.22003678001e-05
-0.000347000290364
-4.47607715898e-05
-0.000339320620947
-4.73476864902e-05
-0.000331247447206
-4.9965670186e-05
-0.000322773015597
-5.26162124878e-05
-0.000313889768695
-5.52971032948e-05
-0.000304591343456
-5.80019514323e-05
-0.000294873688081
-6.07199483228e-05
-0.000284736244711
-6.34359310248e-05
-0.00027418310191
-6.61308489842e-05
-0.000263223998205
-6.8782677806e-05
-0.000251875196001
-7.13676445408e-05
-0.000240159897224
-7.38621857903e-05
-0.000228108460726
-7.62448698288e-05
-0.000215757887089
-7.8499251319e-05
-0.000203151309013
-8.06160392905e-05
-0.00019033574572
-8.2597434438e-05
-0.000177362080965
-8.44564941122e-05
-0.000164280380454
-8.62259442046e-05
-0.000151138143522
-8.79551840051e-05
-0.00013797913002
-8.97118424519e-05
-0.000124836944847
-9.15905002879e-05
-0.00011173115893
-9.37070046121e-05
-9.86659703177e-05
-9.61930992008e-05
-8.5622480182e-05
-9.92001273888e-05
-7.25462651288e-05
-0.000102888323036
-5.93253365732e-05
-0.000107392304856
-4.57879848719e-05
-0.000112691707457
-3.16136514114e-05
-0.000118609481256
-1.63076134423e-05
-0.000123440021905
-0.000120704289878
-3.50200951948e-05
0.000108780026848
-6.73030424285e-05
0.000134536398168
-9.6390328855e-05
0.000153368345331
-0.000122677349279
0.000167425112689
-0.000146538876507
0.000176164962005
-0.000168314346993
0.000180107150944
-0.000188324768928
0.000179931685347
-0.000206797841833
0.000176507710891
-0.000223905083055
0.000170654957815
-0.000239788557755
0.000163097230155
-0.000254568290036
0.000154439652825
-0.000268345019473
0.000145161945321
-0.000281200829059
0.000135626815096
-0.000293200352818
0.000126095707504
-0.000304393092918
0.000116747804272
-0.000314816527661
0.000107698754722
-0.000324499393171
9.90171573253e-05
-0.000333464610711
9.07379616117e-05
-0.000341731567748
8.28727728104e-05
-0.000349317688404
7.5417472579e-05
-0.000356239380184
6.83577150976e-05
-0.000362512512065
6.16728350813e-05
-0.000368152586699
5.53386080307e-05
-0.000373174743673
4.93291932565e-05
-0.000377593693165
4.36184943615e-05
-0.000381423642343
3.81810981491e-05
-0.0003846782471
3.29929029024e-05
-0.000387370606672
2.80315211467e-05
-0.000389513314183
2.32765271026e-05
-0.000391118544247
1.87095717652e-05
-0.000392198084206
1.43143134128e-05
-0.000392763320189
1.00762016077e-05
-0.000392825755574
5.98262070641e-06
-0.000392398381481
2.02395962824e-06
-0.000391494817683
-1.80560200165e-06
-0.000390127028384
-5.50820014459e-06
-0.000388305779826
-9.09102940256e-06
-0.000386042883084
-1.25650185642e-05
-0.000383349856969
-1.59390790919e-05
-0.00038023808272
-1.92215332927e-05
-0.000376718722192
-2.2420547477e-05
-0.000372802557989
-2.55444749052e-05
-0.000368499779236
-2.86021130708e-05
-0.000363819727413
-3.16028965722e-05
-0.000358770610264
-3.45570197524e-05
-0.000353359193994
-3.74754730535e-05
-0.000347590490754
-4.03699712751e-05
-0.000341467467236
-4.32527499876e-05
-0.000334990809508
-4.61362091649e-05
-0.000328158787111
-4.90323913631e-05
-0.000320967262913
-5.19522969947e-05
-0.000313409895755
-5.49050548966e-05
-0.000305478581464
-5.78969857731e-05
-0.000297164156036
-6.09306392557e-05
-0.000288457359437
-6.40039012807e-05
-0.000279350048673
-6.71092636215e-05
-0.000269836571828
-7.02334266298e-05
-0.000259915261786
-7.33572425523e-05
-0.0002495899639
-7.64561483703e-05
-0.00023887126803
-7.95013751783e-05
-0.000227777905343
-8.24610087226e-05
-0.000216337193522
-8.53028990914e-05
-0.000204585858256
-8.79962065499e-05
-0.000192569086675
-9.05160243354e-05
-0.000180341348456
-9.28437789138e-05
-0.000167961810004
-9.49769742683e-05
-0.000155497801433
-9.69205040421e-05
-0.000143016921552
-9.87068254059e-05
-0.000130584782117
-0.000100387324756
-0.000118266851313
-0.000102029774525
-0.000106120067944
-0.000103737284916
-9.41851954324e-05
-0.000105641878306
-8.24885655509e-05
-0.000107889730219
-7.10347576935e-05
-0.000110653936266
-5.97935417839e-05
-0.000114129539892
-4.86758521947e-05
-0.000118509995267
-3.75151838537e-05
-0.000123852376457
-2.60362449503e-05
-0.000130088420726
-1.36122596119e-05
-0.000135864007598
-0.000134316549704
-3.35118818614e-05
0.000142291907657
-6.47537005609e-05
0.000165778217098
-9.30712538946e-05
0.000181685898838
-0.000118535247762
0.0001928891066
-0.000141423126936
0.000199052841154
-0.000162068703237
0.000200752727188
-0.000180805036576
0.000198668018615
-0.000197913930734
0.000193616604968
-0.000213630703957
0.000186371730946
-0.000228150213998
0.00017761674009
-0.0002416289828
0.000167918421507
-0.000254188334314
0.000157721296698
-0.000265918566004
0.000147357046633
-0.000276884422468
0.000137061563795
-0.000287131138652
0.000126994520263
-0.000296690198728
0.000117257814583
-0.000305584167417
0.000107911125778
-0.000313830307291
9.89841012259e-05
-0.00032144300506
9.04854702967e-05
-0.000328435216008
8.24096832207e-05
-0.000334819201883
7.47417006415e-05
-0.000340606822483
6.74604553265e-05
-0.000345809586614
6.05413717801e-05
-0.000350438604316
5.39582105477e-05
-0.000354504526223
4.76844158268e-05
-0.000358017513282
4.16940847312e-05
-0.000360987249953
3.5962639057e-05
-0.000363423000667
3.04672713017e-05
-0.000365333713051
2.51872388817e-05
-0.000366728157513
2.01040155747e-05
-0.000367615003184
1.52011583765e-05
-0.000368002721958
1.04639196095e-05
-0.000367899867183
5.87976511531e-06
-0.000367316782044
1.44087361893e-06
-0.00036626561316
-2.85677177079e-06
-0.000364757653502
-7.01616069228e-06
-0.000362802399362
-1.10462844399e-05
-0.000360410607517
-1.49568113154e-05
-0.000357593698399
-1.87559891268e-05
-0.000354363561843
-2.24516707759e-05
-0.000350732331466
-2.60517787951e-05
-0.00034671213951
-2.95646678166e-05
-0.000342314836835
-3.29994167183e-05
-0.00033755167033
-3.63660640692e-05
-0.000332432914667
-3.96757764287e-05
-0.000326967463303
-4.29409254586e-05
-0.00032116239475
-4.61750409004e-05
-0.00031502254339
-4.93926024557e-05
-0.000308550118479
-5.26086352262e-05
-0.000301744428212
-5.58380828256e-05
-0.000294601772848
-5.90949536064e-05
-0.000287115569139
-6.23912599058e-05
-0.000279276781786
-6.5735774479e-05
-0.000271074706886
-6.91327155629e-05
-0.000262498084992
-7.25805246255e-05
-0.000253536592044
-7.60707580607e-05
-0.00024418252508
-7.95874951121e-05
-0.000234432627943
-8.31071412228e-05
-0.00022429023403
-8.65985438215e-05
-0.000213766444014
-9.00251667208e-05
-0.000202882624869
-9.33448293828e-05
-0.000191670255432
-9.65152700194e-05
-0.000180173344233
-9.94931192185e-05
-0.000168445506542
-0.000102243863482
-0.000156554757489
-0.000104734529398
-0.000144572716124
-0.00010695901707
-0.000132585419021
-0.000108907802557
-0.000120680950619
-0.000110611295226
-0.000108944645281
-0.000112123631482
-9.74644856335e-05
-0.000113509935545
-8.63253277274e-05
-0.000114876444149
-7.55916675443e-05
-0.00011637553977
-6.53113395633e-05
-0.000118170059367
-5.55115307588e-05
-0.000120453746115
-4.61823466428e-05
-0.000123458724857
-3.72621773929e-05
-0.000127430165237
-2.8581489869e-05
-0.000132533064598
-1.99329466006e-05
-0.000138736964319
-1.06266265549e-05
-0.000145170328005
-0.000144943176027
-3.15872112383e-05
0.00017387912253
-6.12808936414e-05
0.000195471900816
-8.83009589626e-05
0.000208705964736
-0.000112588747137
0.000217176895051
-0.000134342682263
0.000220806776426
-0.000153855595495
0.000220265640505
-0.000171444626256
0.000216257049429
-0.000187404552454
0.000209576531197
-0.000201992957139
0.000200960135644
-0.000215424344504
0.000191048127452
-0.000227868315778
0.000180362392761
-0.000239452627041
0.000169305607925
-0.000250269294198
0.000158173713734
-0.000260382275473
0.000147174544997
-0.000269835169255
0.000136447413951
-0.000278657852074
0.000126080497287
-0.000286871551396
0.000116124824964
-0.000294492328222
0.000106604877893
-0.000301533231428
9.75263733196e-05
-0.000308005490741
8.88819423265e-05
-0.000313919098672
8.06553083387e-05
-0.000319283057103
7.28244134989e-05
-0.00032410547653
6.53637909196e-05
-0.000328393639479
5.82463731781e-05
-0.000332154083394
5.14448593883e-05
-0.000335392722119
4.49327230637e-05
-0.000338115002169
3.86849186686e-05
-0.000340326077042
3.26783456887e-05
-0.000342030993394
2.6892154696e-05
-0.000343234898295
2.13079198846e-05
-0.000343943228233
1.59094876594e-05
-0.000344161591591
1.06822822421e-05
-0.000343895233616
5.61340633253e-06
-0.000343150245714
6.9588489049e-07
-0.000341938945898
-4.06807242697e-06
-0.000340273163042
-8.68194439606e-06
-0.000338159956531
-1.31594918066e-05
-0.000335609389097
-1.75073796139e-05
-0.000332633047591
-2.17323315094e-05
-0.000329243595409
-2.58411238467e-05
-0.000325454421624
-2.98409534844e-05
-0.000321279335258
-3.37397551049e-05
-0.00031673224203
-3.75465108893e-05
-0.000311826770834
-4.12715362339e-05
-0.000306575832098
-4.49267161626e-05
-0.000300991104205
-4.85256543853e-05
-0.00029508246052
-5.20836856603e-05
-0.000288857369553
-5.56176945455e-05
-0.00028232032117
-5.91456847846e-05
-0.000275472353668
-6.26860515608e-05
-0.00026831077502
-6.62565335478e-05
-0.000260829150492
-6.98728857859e-05
-0.000253017679593
-7.35472467886e-05
-0.000244864079168
-7.72863174472e-05
-0.000236354822536
-8.1089782759e-05
-0.000227476998429
-8.49485836991e-05
-0.000218220421258
-8.88440738294e-05
-0.000208579604104
-9.27479599321e-05
-0.000198557255959
-9.6620893509e-05
-0.000188164311289
-0.000100418112927
-0.000177425168624
-0.00010408397357
-0.000166375004857
-0.000107565435292
-0.000155066482829
-0.000110801642766
-0.000143560893881
-0.000113749453938
-0.00013194248204
-0.000116352942791
-0.000120295366906
-0.000118606133759
-0.000108725407404
-0.000120477763635
-9.73443055799e-05
-0.000121992398615
-8.62618711008e-05
-0.000123206067485
-7.5587133443e-05
-0.000124184674711
-6.54384860786e-05
-0.000125025092941
-5.59111114196e-05
-0.000125902915755
-4.70756673977e-05
-0.000127005504538
-3.89843816644e-05
-0.000128545032772
-3.16464725538e-05
-0.000130796634704
-2.50293654324e-05
-0.00013404727286
-1.89624296452e-05
-0.000138600000709
-1.32939261338e-05
-0.000144405468135
-7.33927020708e-06
-0.000151124983464
-0.000152282446338
-2.94087226839e-05
0.000203287844922
-5.7304206889e-05
0.000223367385697
-8.27740441429e-05
0.000234175802574
-0.000105700334594
0.000240103185919
-0.000126229480127
0.000241335922259
-0.000144611600903
0.000238647761512
-0.000161135972889
0.000232781421603
-0.000176086619906
0.00022452717837
-0.000189717849423
0.000214591365294
-0.000202242651283
0.000203572929425
-0.000213828866935
0.000191948608507
-0.000224602180404
0.000180078921471
-0.000234652931855
0.000168224465245
-0.000244044359311
0.000156565972493
-0.000252820382961
0.000145223437622
-0.000261011910511
0.000134272024838
-0.000268641372774
0.000123754287205
-0.000275725673708
0.000113689178782
-0.000282277947765
0.000104078647309
-0.000288308538636
9.49125331053e-05
-0.000293825538213
8.6172307798e-05
-0.00029883512039
7.78339955322e-05
-0.000303341809627
6.9870479982e-05
-0.000307348753006
6.22533163489e-05
-0.000310858018014
5.49541241503e-05
-0.000313870913386
4.7945618146e-05
-0.000316388319495
4.12023244373e-05
-0.000318411011429
3.47010372294e-05
-0.000319939944638
2.84210874535e-05
-0.000320976506405
2.23444811361e-05
-0.000321522778164
1.64557588264e-05
-0.000321581670941
1.07411743445e-05
-0.000321156169214
5.18790387805e-06
-0.000320247897293
-2.1238781993e-07
-0.000318868353803
-5.44761670502e-06
-0.000317029327476
-1.05209715132e-05
-0.000314736415939
-1.5452404143e-05
-0.0003119996759
-2.02441204604e-05
-0.00030883118952
-2.49008187123e-05
-0.000305244508036
-2.94278061683e-05
-0.000301254302749
-3.38311596289e-05
-0.000296876083709
-3.81179750239e-05
-0.000292125893794
-4.22967017129e-05
-0.000287019929316
-4.63775016532e-05
-0.000281574056214
-5.03725902457e-05
-0.00027580320695
-5.42965046766e-05
-0.000269720663279
-5.81662304111e-05
-0.000263337258295
-6.20011006683e-05
-0.000256660561575
-6.58223827079e-05
-0.000249694134904
-6.9652479499e-05
-0.000242437012892
-7.35136568922e-05
-0.000234883469682
-7.74264303888e-05
-0.00022702322924
-8.14074886746e-05
-0.000218842528505
-8.54670196682e-05
-0.000210325367662
-8.96069451218e-05
-0.000201455829162
-9.38181237317e-05
-0.000192221005834
-9.80788987042e-05
-0.000182612184971
-0.000102356782335
-0.000172631908688
-0.00010660117133
-0.000162289665304
-0.000110760357856
-0.000151613915295
-0.000114759725121
-0.000140642199826
-0.000118537152341
-0.000129437944979
-0.000122005899221
-0.000118068337699
-0.000125119062871