/*--------------------------------*- C++ -*----------------------------------*\
| =========                 |                                                 |
| \\      /  F ield         | OpenFOAM: The Open Source CFD Toolbox           |
|  \\    /   O peration     | Version:  v1806                                 |
|   \\  /    A nd           | Web:      www.OpenFOAM.com                      |
|    \\/     M anipulation  |                                                 |
\*---------------------------------------------------------------------------*/
FoamFile
{
    version     2.0;
    format      ascii;
    class       surfaceScalarField;
    location    "600";
    object      phia;
}
// * * * * * * * * * * * * * * * * * * * * * * * * * * * * * * * * * * * * * //

dimensions      [0 3 -1 0 0 0 0];
oriented        oriented;


internalField   nonuniform List<scalar> 
12640
(
-0.0013881116927
0.00138825003558
-0.00263091972883
0.00124296452806
-0.00382420859069
0.00119346926996
-0.00547738097901
0.00165334951473
-0.00666610254024
0.00118894086013
-0.00806030345305
0.00139444219048
-0.00906521225043
0.00100508598776
-0.00982841386297
0.000763358109443
-0.0104349219428
0.000606654738789
-0.0109276150779
0.000492833967184
-0.0113319660824
0.000404485329684
-0.0116653363676
0.000333502168441
-0.0119407413606
0.000275533873176
-0.0121683972936
0.000227785984981
-0.0123564666385
0.000188199885347
-0.0125115212143
0.000155189119067
-0.0126388974709
0.000127513900922
-0.0127429440423
0.000104190130156
-0.0128272144382
8.44188668179e-05
-0.0128946038813
6.75450580415e-05
-0.0129474734477
5.30313284682e-05
-0.0129877435147
4.04397308408e-05
-0.013016982788
2.94159043079e-05
-0.0130364722149
1.96743732299e-05
-0.0130472670314
1.09872376811e-05
-0.0130502390227
3.17290424319e-06
-0.0130461194316
-3.91089024676e-06
-0.0130355275391
-1.03746627983e-05
-0.0130190009487
-1.63013285578e-05
-0.0129970238002
-2.17434801581e-05
-0.0129700648189
-2.67170985923e-05
-0.0129387395578
-3.10751263624e-05
-0.0129040561458
-3.44248171809e-05
-0.0128679453929
-3.58438984641e-05
-0.0128289888723
-3.86815440957e-05
-0.012764234688
-6.44724517996e-05
-0.0126664058904
-9.75403900739e-05
-0.0125407687435
-0.000125343934131
-0.0124006185935
-0.000139852262814
-0.0122507616484
-0.000149556430059
-0.0120947422933
-0.000155716198451
-0.0119347413437
-0.000159697506485
-0.0117721543044
-0.000162283282805
-0.0116079407361
-0.000163911972345
-0.0114428333199
-0.00016480788169
-0.0112774700041
-0.000165068277529
-0.0111124553974
-0.000164723852037
-0.0109484002277
-0.000163770969256
-0.0107859415409
-0.000162180681493
-0.0106257680074
-0.000159903741174
-0.0104686331458
-0.000156872751291
-0.0103153732119
-0.000153007224467
-0.0101669112075
-0.000148217979828
-0.0100242616258
-0.000142415659075
-0.00988851686059
-0.000135520044785
-0.00976082831746
-0.000127474173776
-0.00964236459414
-0.000118258638138
-0.00953426048918
-0.000107909241342
-0.00943754271535
-9.65319213123e-05
-0.00935304879831
-8.43178621047e-05
-0.00928132946679
-7.15517424452e-05
-0.00922255412818
-5.86169009303e-05
-0.00917641240579
-4.59910086463e-05
-0.0091420320346
-3.42380054097e-05
-0.00911790350926
-2.3993047491e-05
-0.0091018297728
-1.5945749115e-05
-0.00909087934415
-1.08285421696e-05
-0.0090813708759
-9.39326673779e-06
-0.00906882002018
-1.24409969009e-05
-0.00904801124031
-2.07044261796e-05
-0.00901278874874
-3.51224587076e-05
-0.0089567691337
-5.59226874045e-05
-0.00887201838072
-8.4657551042e-05
-0.0087547436148
-0.000117180435441
-0.00859182503299
-0.000162831236912
-0.00839842129552
-0.0001933123388
-0.00807317626493
-0.000325160620973
-0.00766685229516
-0.000406253969019
-0.00535489949562
-0.00231172374189
-0.00535482087208
-0.00121111264784
0.00259961224002
-0.00307891349613
0.00311101594727
-0.00473953048945
0.00285428383333
-0.00636887299978
0.00328283903769
-0.00811516028345
0.00293533424298
-0.00924721163097
0.00252657022276
-0.0104308015656
0.00218874982983
-0.0115882548429
0.00192088093806
-0.0126897138484
0.00170818587074
-0.0137256694121
0.00152885912991
-0.0146912421186
0.00137012805485
-0.0155845859999
0.00122691393855
-0.0164064662686
0.00109748218754
-0.017159550404
0.000980937860902
-0.0178476305902
0.000876348942734
-0.0184750146183
0.000782643772129
-0.0190461319503
0.000698704114132
-0.0195653019162
0.000623436489937
-0.0200366071441
0.000555803697526
-0.0204638241604
0.000494846583476
-0.0208504005715
0.000439696201009
-0.0211994494406
0.000389583046015
-0.0215137671964
0.000343832615651
-0.0217958487743
0.000301861705909
-0.0220479166476
0.000263165774922
-0.0222719384549
0.000227312788029
-0.0224696568568
0.000193930812066
-0.022642603594
0.000162703277624
-0.0227921319411
0.000133363709502
-0.0229194177246
0.000105687190738
-0.0230255016091
7.95172682403e-05
-0.0231111022485
5.46842490275e-05
-0.0231767469025
3.13843768638e-05
-0.0232230801392
1.06616674525e-05
-0.0232644847956
2.90064519226e-06
-0.0233384861923
9.71282907877e-06
-0.0234173158834
-1.85233919375e-05
-0.0234692354809
-7.32328867187e-05
-0.0234901424569
-0.000118751780697
-0.0234773161539
-0.000162186973502
-0.0234279057505
-0.00020493017943
-0.0233405480327
-0.000246858566382
-0.0232142331464
-0.000288402380171
-0.0230478719462
-0.000330079143547
-0.0228402613564
-0.000372226792269
-0.0225901212933
-0.000415020203511
-0.022296123962
-0.000458536700961
-0.0219569239232
-0.000502791508824
-0.0215711898571
-0.000547739951876
-0.0211376511819
-0.000593273631064
-0.0206551514606
-0.000639209140298
-0.0201227212472
-0.000685280710998
-0.0195396619409
-0.000731126456178
-0.0189056531439
-0.00077628042752
-0.0182208730721
-0.000820162147141
-0.0174861391366
-0.000862076811097
-0.0167030533919
-0.000901219070974
-0.0158741509637
-0.000936692666507
-0.0150030304099
-0.000967539202961
-0.0140944556235
-0.000992785176982
-0.013154406369
-0.00101149885735
-0.0121900656168
-0.0010228607185
-0.0112097283929
-0.00102623611005
-0.0102226302647
-0.00102124856876
-0.0092386977867
-0.00100784218604
-0.0082682360128
-0.000986328107471
-0.00732157327327
-0.000957415562198
-0.00640868876221
-0.000922205390913
-0.00553885174016
-0.000882208793213
-0.00472026904883
-0.000839220389537
-0.00395978977336
-0.000795536930383
-0.0032626164589
-0.00075303266289
-0.00263205373403
-0.000715156532826
-0.00206930778613
-0.0006798647785
-0.00157226662606
-0.00065980746447
-0.00113820080377
-0.000627322545519
-0.000741990757218
-0.000721310058652
-0.000386797298862
-0.000761371511952
0.000271503072374
-0.00296997581307
-0.00508324230876
-0.00434004711388
0.00693977769731
-0.00535819781295
0.00412934307098
-0.00561282367932
0.00310901347052
-0.00561393300905
0.00328402548818
-0.00581397245994
0.00313543180765
-0.00622068873278
0.00293333308253
-0.00680749939178
0.00277559839142
-0.00748548900916
0.00259890558685
-0.00817204871951
0.00239477833653
-0.00882214265767
0.0021789846605
-0.00941602424838
0.00196403912613
-0.00994652874696
0.00175744592021
-0.0104129589806
0.00156393779627
-0.0108181149549
0.00138611718209
-0.0111665177293
0.00122477366395
-0.0114633142747
0.0010794607729
-0.0117136585125
0.00094906835414
-0.0119224000977
0.000832197276481
-0.0120939441132
0.000727367386784
-0.0122322067397
0.000633128758291
-0.0123406168095
0.000548127115557
-0.0124221463282
0.000471133891925
-0.0124793491827
0.000401058798325
-0.0125144080405
0.000336944896915
-0.0125291769716
0.000277961632958
-0.0125252262292
0.00022339043243
-0.0125038792167
0.000172615301607
-0.0124662507196
0.00012510814887
-0.0124132756905
8.04255681955e-05
-0.0123457422392
3.81927268645e-05
-0.0122643238179
-1.85854777346e-06
-0.0121696337545
-3.99610647856e-05
-0.0120620128201
-7.61883571796e-05
-0.011938852345
-0.000112448495829
-0.011779870676
-0.0001560283508
-0.0115917570349
-0.000178347552394
-0.011416921549
-0.000193304699809
-0.0112655311994
-0.000224569276404
-0.0111316266014
-0.000252602428083
-0.011016604151
-0.000277156144159
-0.0109208978441
-0.000300584073778
-0.0108442961953
-0.00032340891528
-0.0107868769087
-0.000345771997474
-0.0107489109267
-0.000367996883601
-0.0107306012585
-0.000390490403968
-0.0107319234131
-0.000413653562854
-0.0107525319424
-0.000437886178453
-0.0107916787047
-0.000463604303535
-0.0108481353211
-0.000491245458094
-0.0109201134248
-0.000521259055876
-0.0110051924455
-0.000554096099941
-0.0111002488971
-0.000590191431016
-0.0112013992715
-0.000629945470946
-0.0113039539464
-0.000673696101256
-0.0114023993678
-0.000721689003487
-0.0114904104335
-0.000774038772629
-0.0115609133819
-0.000830690788277
-0.0116062022803
-0.000891379011858
-0.0116181258627
-0.000955592234187
-0.011588340449
-0.0010225476327
-0.0115086316879
-0.00109118577056
-0.0113712837606
-0.00116018704479
-0.0111694780149
-0.00122802106329
-0.010897681645
-0.0012930241189
-0.0105519947066
-0.00135350874234
-0.0101304129686
-0.00140788909186
-0.00963298306399
-0.00145482474436
-0.00906183133475
-0.00149333566717
-0.0084210523122
-0.0015229658905
-0.00771649578541
-0.00154375354579
-0.00695537025266
-0.00155663771647
-0.00614580193953
-0.00156257338668
-0.005295633809
-0.0015652957548
-0.00441204325189
-0.00156342135886
-0.00349799156765
-0.00157382778881
-0.0025617371575
-0.00156354015283
-0.00160621533321
-0.00167680246809
-0.000740118388488
-0.00162745647149
3.86929436709e-05
-0.00374870287158
-0.0050445580844
-0.00576501896346
0.0127050815788
-0.00419828807637
0.00256273217576
-0.00365265508272
0.00256344888164
-0.00388490244232
0.00351632418565
-0.00454406882675
0.00379463708498
-0.00542026234925
0.00380955368221
-0.00634768366611
0.00370303941482
-0.00723802200324
0.00348925874494
-0.00805372070985
0.00321048879833
-0.00878568091408
0.00291095358751
-0.00943798594462
0.00261634961442
-0.0100194123059
0.00233887425164
-0.0105395687574
0.00208409218314
-0.0110073568068
0.00185389942796
-0.0114304589717
0.00164786572512
-0.0118152625218
0.00146425065421
-0.0121669678351
0.00130075581582
-0.0124897609731
0.00115496940102
-0.0127870013095
0.00102458283913
-0.0130613892051
0.000907489102873
-0.0133151111393
0.00080181802665
-0.0135499532003
0.000705942777762
-0.0137673952334
0.000618464608574
-0.0139686806686
0.000538192455039
-0.0141548752743
0.000464115733653
-0.0143269087699
0.000395382243195
-0.0144856102191
0.000331272851995
-0.0146317336696
0.000271186934395
-0.014765969725
0.000214615055621
-0.0148889721238
0.000161147931739
-0.0150012641037
0.000110384361699
-0.0151033627716
6.20878185783e-05
-0.015195262444
1.56597797452e-05
-0.0152800668109
-2.76971142367e-05
-0.0153692835012
-6.68670961489e-05
-0.0154214092369
-0.000126279278944
-0.0154341948773
-0.000180579121445
-0.0154186356098
-0.000240190788217
-0.015369859651
-0.000301442873183
-0.0152865356782
-0.000360546689215
-0.0151694920954
-0.000417695922572
-0.0150194964634
-0.000473474602731
-0.0148373470946
-0.000527992379623
-0.0146241546274
-0.000581261624519
-0.0143813715362
-0.000633345830944
-0.0141107807277
-0.000684317246954
-0.0138145151981
-0.000734223674014
-0.0134950940822
-0.000783097103831
-0.0131554422453
-0.000830967129505
-0.0127988955947
-0.000877874448312
-0.012429179093
-0.000923878687767
-0.0120503632652
-0.000969071553747
-0.0116667823471
-0.0010135874344
-0.0112829183532
-0.00105761883559
-0.0109032356392
-0.00110142686132
-0.0105319745209
-0.00114535242816
-0.0101728971748
-0.0011898169624
-0.00982900604957
-0.00123531624862
-0.00950224436042
-0.00128239638914
-0.00919321505104
-0.00133161670764
-0.00890094354617
-0.00138349352959
-0.00862272863157
-0.00143843554152
-0.00835410653191
-0.00149667330459
-0.00808895857419
-0.00155819946926
-0.00781976286559
-0.00162272832287
-0.00753798797086
-0.00168968490173
-0.00723459408449
-0.00175823583356
-0.00690061745363
-0.00182732624476
-0.00652778328271
-0.00189580996899
-0.00610914870762
-0.00196239422107
-0.00563966743105
-0.00202612023665
-0.00511683153545
-0.00208540639373
-0.0045405822243
-0.00214153640261
-0.00391413026594
-0.0021898629831
-0.00324035549013
-0.00224758570331
-0.00253042722519
-0.00227345628024
-0.00178299851035
-0.00242421646786
-0.00107594231651
-0.00233447950602
-0.000289349916446
-0.00453532091304
-0.00533389201505
-0.00137850188648
0.0140836117123
-0.000920161785616
0.00210443879844
-0.00204623434396
0.00368956513773
-0.00334799903582
0.00481812520023
-0.00454400074907
0.00499066683887
-0.00561702753178
0.0048826012298
-0.00653448110268
0.00462050764308
-0.00729988858116
0.00425467671211
-0.00794027191784
0.00385087923383
-0.00848297595303
0.00345366177864
-0.00894976219153
0.0030831369072
-0.00935725834113
0.00274636796818
-0.0097177225502
0.00244455029607
-0.0100398109936
0.00217597754856
-0.0103294720084
0.00193751230776
-0.0105907606112
0.00172552013474
-0.0108264496144
0.00153642141213
-0.0110384583994
0.00136694990477
-0.0112281471274
0.00121423903655
-0.0113965185394
0.00107582312027
-0.011544348401
0.000949606409415
-0.0116722698046
0.000833817966553
-0.011780821937
0.000726966675975
-0.01187048062
0.000627796527621
-0.011941672629
0.000535249548204
-0.0119947845885
0.000448431689736
-0.0120301646283
0.000366587052599
-0.0120481207197
0.000289073063226
-0.0120489225595
0.000215343697093
-0.0120327785613
0.000144926607284
-0.0119998906166
7.74157193981e-05
-0.0119502970028
1.24093622227e-05
-0.0118842052568
-5.05204021142e-05
-0.0117996259941
-0.000112368999053
-0.0116965645748
-0.000170025389353
-0.0116037148834
-0.000219229686554
-0.0115160147445
-0.000268383328183
-0.0114389950626
-0.000317317672338
-0.0113733187334
-0.000367229150795
-0.0113169776913
-0.000416999816759
-0.0112684582744
-0.000466329303855
-0.0112263460616
-0.000515701729877
-0.0111888947382
-0.000565559424648
-0.0111540584662
-0.000616213259905
-0.0111195534543
-0.000667965820211
-0.0110828594935
-0.000721124506151
-0.011041230174
-0.000775964706518
-0.0109917321851
-0.000832703907785
-0.0109313142724
-0.000891491181652
-0.0108568959397
-0.000952395003139
-0.0107654812162
-0.00101539206891
-0.0106542907023
-0.00108035605561
-0.0105209132016
-0.00114705472827
-0.0103634630296
-0.00121515367486
-0.0101807359578
-0.0012842340507
-0.00997234113434
-0.00135382207503
-0.0097387928633
-0.00142343540727
-0.00948153377142
-0.00149264029957
-0.00920287212533
-0.00156111844961
-0.00890581318459
-0.00162873109753
-0.00859378485363
-0.00169557297828
-0.00827026561218
-0.00176200123304
-0.00793834862024
-0.001828632607
-0.00760028417579
-0.00189630176579
-0.00725706120135
-0.00196598509255
-0.00690808387114
-0.00203869166803
-0.00655099603924
-0.0021153490625
-0.00618170184989
-0.00219664153297
-0.00579459843015
-0.00228293039545
-0.00538307396489
-0.00237393115132
-0.00494025136774
-0.00246895096512
-0.00446025047999
-0.00256541044069
-0.00393934682409
-0.00266244012096
-0.00337869088941
-0.00275051380926
-0.00278278391008
-0.00284348879854
-0.00216812303672
-0.00288810783234
-0.00153465049911
-0.00305768384187
-0.000949338790088
-0.00291980895226
-0.000228353063596
-0.00525628152678
-0.00556226609479
4.819949121e-05
0.0140355416435
-0.000401451147062
0.00255413913661
-0.00231768234562
0.00560582797539
-0.00387337363828
0.00637384228315
-0.00506090601693
0.00617822047378
-0.00599033203075
0.00581204398195
-0.00670700863217
0.00533719741169
-0.00726624047084
0.00481391873495
-0.00772140108188
0.00430604775836
-0.0081096535876
0.0038419199631
-0.00845423626184
0.00342772293958
-0.00876953474486
0.00306166718805
-0.0090641582606
0.00273917146093
-0.00934285027895
0.00245466387978
-0.00960792068176
0.00220257312777
-0.00986027252834
0.00197785845596
-0.0101000598744
0.00177619073881
-0.0103270802273
0.00159394790688
-0.010541004213
0.00142813580979
-0.010741503384
0.00127629054852
-0.010928316997
0.00113638322772
-0.0111012789128
0.00100673849037
-0.0112603249279
0.000885966175003
-0.0114054874567
0.000772907957001
-0.0115368879739
0.00066659384448
-0.0116547265735
0.000566209536788
-0.0117592744609
0.000471069095524
-0.011850866327
0.000380594542203
-0.0119298954508
0.000294297278926
-0.0119968116505
0.000211762545572
-0.012052122102
0.000132640629779
-0.0120964396114
5.66365901929e-05
-0.0121306873228
-1.6368082168e-05
-0.0121567460722
-8.64108379716e-05
-0.0121664353614
-0.000160441549716
-0.0121515749557
-0.000234199312498
-0.0121131617264
-0.00030690917635
-0.0120511718205
-0.000379423124835
-0.0119670555215
-0.000451463220027
-0.0118619161616
-0.000522258742534
-0.0117371095025
-0.000591256403648
-0.0115944873917
-0.000658444791073
-0.0114361530202
-0.00072401420567
-0.0112643221728
-0.000788163692045
-0.0110812748344
-0.000851130833458
-0.0108892855313
-0.000913229392069
-0.0106905243022
-0.00097483838786
-0.0104869566217
-0.00103638084427
-0.0102802475041
-0.00109830542348
-0.0100716755102
-0.00116106804534
-0.00986205791551
-0.0012251058366
-0.00965169876316
-0.00129080667952
-0.00944036500518
-0.00135847460954
-0.00922730278473
-0.00142829694969
-0.00901129734808
-0.00150031498406
-0.00879078368626
-0.00157440604256
-0.00856400245674
-0.00165028142187
-0.00832919391119
-0.001727508542
-0.00808480648724
-0.00180556030245
-0.00782969279353
-0.00188389440822
-0.0075632538098
-0.0019620566954
-0.00728549563769
-0.00203979967583
-0.00699696763049
-0.0021171963911
-0.00669856778203
-0.00219473324336
-0.00639122480084
-0.00227335552595
-0.00607549097674
-0.00235444903855
-0.00575109464382
-0.00243976513302
-0.0054165499555
-0.00253120225648
-0.00506886637238
-0.00263062662262
-0.00470349180448
-0.00273931474861
-0.00431454583572
-0.002857902597
-0.00389569204672
-0.00298426673941
-0.00344117072601
-0.00311696096639
-0.0029488636806
-0.00324282028011
-0.0024197819257
-0.00337256713487
-0.00186892604222
-0.00343896387629
-0.00129755687844
-0.00362905251612
-0.000789588042706
-0.00342776608921
-0.000140402108924
-0.0059055048081
-0.00570267280303
0.000339297199962
0.0136961985858
-0.000878350729251
0.00377178714182
-0.00305533062247
0.0077828208304
-0.00444296829905
0.00776149540644
-0.00538418476906
0.00711945229661
-0.00605501504347
0.00648288866125
-0.00653619129577
0.00581838650686
-0.0069036896721
0.00518142862996
-0.00721203284216
0.00461440101475
-0.00749192606438
0.00412182201225
-0.00775918277727
0.00369498697766
-0.00802132291682
0.00332381295976
-0.00828103893395
0.00299889105005
-0.00853824904741
0.00271187509821
-0.00879144592819
0.00245576833154
-0.00903853834717
0.00222494596432
-0.00927732775408
0.00201497183644
-0.00950575544209
0.00182236346379
-0.0097220159192
0.00164438032484
-0.00992459576618
0.00147885021648
-0.0101122700842
0.00132403326541
-0.0102840784057
0.00117851807049
-0.0104392906833
0.00104114545617
-0.0105773725918
0.000910952270576
-0.0106979518668
0.000787131190878
-0.0108007895139
0.000669000584817
-0.0108857540637
0.000555982637108
-0.0109528014136
0.000447586114804
-0.0110019562108
0.000343391714301
-0.011033302309
0.0002430433532
-0.0110469546312
0.000146222989802
-0.0110430534157
5.26605681433e-05
-0.0110214752719
-3.8025662007e-05
-0.0109819529464
-0.000126017240624
-0.0109334030033
-0.000209079658007
-0.0108786082806
-0.000289085187999
-0.0108183316403
-0.000367279551295
-0.0107536989857
-0.000444151454973
-0.0106850085869
-0.000520250791327
-0.0106117336459
-0.000595631583702
-0.0105328662431
-0.000670222012832
-0.0104472762134
-0.000744132516623
-0.0103537949536
-0.000817592275337
-0.0102512375458
-0.000890816232897
-0.0101384758978
-0.00096398563242
-0.0100145206407
-0.00103727510798
-0.00987858316384
-0.00111086340986
-0.00973011830791
-0.00118492973135
-0.00956885254374
-0.00125965156922
-0.0093947926641
-0.00133520417696
-0.00920821244149
-0.00141175812972
-0.00900961470106
-0.00148947195258
-0.00879967186965
-0.00156848046343
-0.00857914850053
-0.00164887859879
-0.00834881508058
-0.0017307020449
-0.0081093640772
-0.00181390594076
-0.00786134349077
-0.00189834633683
-0.00760512255504
-0.00198376925914
-0.00734090196934
-0.00206981636218
-0.00706877244898
-0.00215605520436
-0.00678881449755
-0.00224204199024
-0.00650121471945
-0.00232742300684
-0.00620636676013
-0.00241206434729
-0.00590490835188
-0.00249620822934
-0.00559766245555
-0.00258061470882
-0.00528545768768
-0.00266666413932
-0.00496881395738
-0.00275641613555
-0.004647582754
-0.00285243856552
-0.0043205390481
-0.00295767268837
-0.00398509597596
-0.00307475853464
-0.00363717112859
-0.00320582581492
-0.00327163037625
-0.00334980484895
-0.00288283565744
-0.00350575238461
-0.00246715238511
-0.00365850044928
-0.00202234137606
-0.00381737785646
-0.001559415048
-0.00390188901929
-0.00107650821956
-0.00411195962827
-0.000669653741885
-0.00383464202982
-0.000100376611198
-0.00647478504085
-0.00580306686577
0.000332057880409
0.0133641724495
-0.00141940293133
0.00552325540933
-0.00355403611128
0.00991745905837
-0.00463676572273
0.00884423331181
-0.0053165187515
0.00779921608667
-0.00577128717177
0.0069376690549
-0.00609105185924
0.0061381637739
-0.00635060498728
0.0054409941654
-0.00659206364836
0.00485587183122
-0.00683430922643
0.0043640791347
-0.00708464886218
0.00394533751609
-0.00734447273526
0.00358364674372
-0.00761199470607
0.00326642171975
-0.00788392157848
0.00298380906013
-0.00815647250214
0.00272832440045
-0.00842594118667
0.00249441751136
-0.0086889733084
0.00227800420211
-0.00894268121103
0.00207606877236
-0.00918466792467
0.00188636131452
-0.00941300277829
0.00170717611266
-0.00962617441458
0.00153719246448
-0.00982303550034
0.0013753632251
-0.0100027482198
0.00122083854268
-0.0101647342023
0.00107291496603
-0.0103086316823
0.000931001556043
-0.0104342593527
0.00079459738238
-0.0105415880411
0.000663276534552
-0.0106307173999
0.000536676793627
-0.0107018615777
0.000414493171543
-0.0107553323674
0.000296467417708
-0.0107915492221
0.000182389093198
-0.0108110121716
7.20689904713e-05
-0.0108144541432
-3.46419891827e-05
-0.0108024625017
-0.000138070877298
-0.0107720317855
-0.000239575078204
-0.0107228442166
-0.000338339473324
-0.0106555475826
-0.000434644355584
-0.0105710916256
-0.000528676660098
-0.0104708942022
-0.000620517915332
-0.0103564264557
-0.000710169106706
-0.0102291196892
-0.000797598018666
-0.0100904237532
-0.000882896803745
-0.00994177141638
-0.000966311526465
-0.00978447502244
-0.00104817779934
-0.00961964395055
-0.00112887968311
-0.00944813709662
-0.00120884249658
-0.00927053536234
-0.00128852288701
-0.00908713338979
-0.0013683864554
-0.00889795520616
-0.00144888126352
-0.00870279438589
-0.00153041311411
-0.00850127393986
-0.00161332314216
-0.00829291874123
-0.00169786806375
-0.00807723166827
-0.00178420472836
-0.00785376333279
-0.00187238035884
-0.00762216585867
-0.00196232920176
-0.00738222368204
-0.00205387408297
-0.00713385789865
-0.0021467344889
-0.00687710869659
-0.00224053733942
-0.00661210592351
-0.00233483470906
-0.00633904386411
-0.00242912969904
-0.00605817866533
-0.00252291669012
-0.00576985219459
-0.00261575614818
-0.00547455082891
-0.00270736988293
-0.00517295835854
-0.00279780219387
-0.00486598725643
-0.00288758523722
-0.00455474108532
-0.00297790725665
-0.00424033174143
-0.00307082087799
-0.00392366283322
-0.00316910103744
-0.00360505117407
-0.00327627714875
-0.00328397421216
-0.00339582729488
-0.00295879691493
-0.00353099460301
-0.00262703621586
-0.00368155685304
-0.00228577424092
-0.00384700730193
-0.00193339780522
-0.00401087251677
-0.00156839969633
-0.00418237513084
-0.00120076287733
-0.00426952741458
-0.000824494124285
-0.0044882335725
-0.000539133781052
-0.00412000226639
-6.32149277744e-05
-0.00695073398624
-0.00586629771454
0.000246884140874
0.0131172287283
-0.0019248151306
0.00769493131822
-0.00380990356987
0.0118025410332
-0.00454510248137
0.00957943348302
-0.00500850121058
0.00826262131847
-0.00531501827972
0.0072441960387
-0.00554554091157
0.00636869800081
-0.00576012168931
0.00565558738792
-0.00598434262285
0.0050801052577
-0.0062263485427
0.00460609744643
-0.00648701213166
0.00420601305524
-0.00676356144073
0.00386020748711
-0.00705143645347
0.00355430731402
-0.00734551041348
0.00327789253674
-0.00764078856859
0.00302361064375
-0.00793274670183
0.00278638203771
-0.00821746619679
0.00256272809511
-0.00849166099525
0.0023502657375
-0.00875264537401
0.00214734542677
-0.00899827277768
0.00195280063482
-0.00922686426255
0.00176577833698
-0.00943713725116
0.00158562774212
-0.00962814004218
0.00141182995006
-0.00979919458036
0.0012439551338
-0.00994984794685
0.00108163754872
-0.0100798322385
0.00092456126461
-0.0101890323262
0.000772453148725
-0.0102774599444
0.000625077861085
-0.0103452353067
0.000482238859656
-0.0103925720971
0.000343771482289
-0.0104197727335
0.000209554051158
-0.0104272229527
7.948076351e-05
-0.0104154339907
-4.64720835295e-05
-0.0103853642524
-0.000168184081403
-0.0103394052979
-0.000285579091185
-0.0102783277589
-0.000399462964111
-0.0102028891699
-0.000510129519379
-0.0101137318698
-0.000617880642829
-0.0100113530297
-0.000722943264463
-0.00989614294684
-0.000825425051087
-0.00976841623571
-0.000925369679389
-0.00962850702901
-0.00102284965031
-0.00947684306211
-0.00111801758933
-0.00931396177325
-0.00121109933567
-0.00914049931961
-0.00130238033534
-0.00895716985097
-0.00139220790219
-0.00876473162864
-0.00148099461036
-0.00856393923337
-0.00156920978301
-0.00835548966719
-0.0016573590378
-0.00813997250485
-0.00174595570011
-0.00791783245729
-0.00183548569825
-0.00768935117782
-0.00192636894512
-0.00745465185781
-0.00201892065146
-0.00721372689644
-0.0021133190018
-0.00696648315576
-0.00220958367089
-0.00671279878968
-0.00230756636662
-0.0064525758409
-0.00240696260226
-0.00618578183722
-0.00250733394406
-0.00591246930167
-0.00260814739316
-0.00563277567929
-0.00270882122431
-0.00534691928205
-0.00280876872281
-0.00505518841247
-0.00290748084452
-0.00475797453767
-0.00300457532634
-0.00445580264224
-0.00309996413185
-0.00414939372168
-0.00319398200045
-0.00383971655937
-0.00328757081527
-0.0035278765796
-0.00338264590404
-0.00321510826887
-0.00348185377032
-0.00290246893495
-0.00358890093177
-0.00259089709731
-0.00370738323226
-0.0022806898713
-0.00384118698947
-0.0019721097984
-0.00399012378597
-0.00166610031683
-0.00415300666368
-0.00136539590931
-0.00431157271596
-0.00107205313126
-0.00447571754318
-0.000796224688187
-0.00454536143142
-0.000534658763191
-0.00474980209352
-0.00037193654231
-0.00428274410274
4.97016155353e-06
-0.00732766525371
-0.00586134008841
0.000124981170803
0.0129922435449
-0.00230987011928
0.010129770084
-0.00381459570895
0.0133072561972
-0.0042460331653
0.0100108679919
-0.00457208797489
0.00858867929135
-0.00479889905835
0.00747101464594
-0.00499641752454
0.00656622680822
-0.0052065118984
0.00586569333156
-0.00544105103202
0.00531465650762
-0.00570126478792
0.00486632322799
-0.00598420583062
0.00448896594445
-0.00628472738171
0.00416074040291
-0.00659681163682
0.0038664023843
-0.00691447196344
0.00359556280313
-0.00723222036277
0.00334136794712
-0.00754526242706
0.00309943164127
-0.00784954369207
0.00286701536714
-0.00814172344676
0.00264244970395
-0.00841910855085
0.00242473282788
-0.0086795721891
0.00221326447178
-0.008921470493
0.00200767468109
-0.00914356493487
0.00180771794642
-0.00934495371971
0.00161321222281
-0.00952501339355
0.00142400594912
-0.00968334990246
0.00123996291942
-0.00981975855455
0.00106095644281
-0.0099341920021
0.000886870891322
-0.0100267340435
0.00071760189201
-0.01009758417
0.000553068816291
-0.0101470370379
0.000393202000164
-0.0101755056577
0.000237998420737
-0.0101834609563
8.74100231684e-05
-0.0101716294794
-5.8331161736e-05
-0.0101401132792
-0.000199729275379
-0.010088702375
-0.000337019435695
-0.0100181070944
-0.000470087911165
-0.00992915405578
-0.00059911203715
-0.00982287641632
-0.000724187374878
-0.00970044965772
-0.00084539836127
-0.0095630859277
-0.000962816173573
-0.00941196317978
-0.0010765185827
-0.00924820263881
-0.00118663493648
-0.00907286500329
-0.00129337835544
-0.00888693898116
-0.00139704671979
-0.00869132816134
-0.00149801062678
-0.00848684688513
-0.00159670661548
-0.00827422315854
-0.00169363368652
-0.00805410163738
-0.00178934442331
-0.00782704374965
-0.0018844278209
-0.00759352415075
-0.00197948383629
-0.00735392561999
-0.00207509047151
-0.00710853380022
-0.00217176460474
-0.00685753685731
-0.00226991914241
-0.00660103284709
-0.00236982221456
-0.00633904685762
-0.00247156666504
-0.00607156573078
-0.00257504233204
-0.00579857489746
-0.00267994628429
-0.00552010246208
-0.00278579726482
-0.00523625017275
-0.00289198891016
-0.00494720433291
-0.00299785438439
-0.00465324869079
-0.00310271027124
-0.00435472866998
-0.00320598489959
-0.00405208672907
-0.00330719977081
-0.00374583336282
-0.00340619837332
-0.00343661307048
-0.00350318134889
-0.00312534575339
-0.00359881582925
-0.00281307752594
-0.00369489093969
-0.0025010821785
-0.00379382663809
-0.00219065394304
-0.00389930745582
-0.00188410411936
-0.0040139135101
-0.00158308200106
-0.0041421914383
-0.0012906832306
-0.00428250794505
-0.00101303430456
-0.00443064671545
-0.000757710179609
-0.00456689178131
-0.000534048941708
-0.00469938392251
-0.000343391351092
-0.00473602220917
-0.000227041419878
-0.00486616354242
-0.000155631671843
-0.00435416608853
0.000167470954847
-0.00765078816583
-0.0056938945762
3.87285431398e-07
0.0129918017919
-0.00256094465368
0.0126910707816
-0.00363341749986
0.0143797131889
-0.00385004726999
0.0102274905722
-0.00411021935504
0.00884885164708
-0.00430239837418
0.00766319925818
-0.00449720115117
0.00676103824387
-0.00471993249619
0.00608843492122
-0.00497370898897
0.00556844359443
-0.00525609992242
0.00514872473593
-0.00556195895733
0.00479483515082
-0.00588475420275
0.0044835454377
-0.00621769637866
0.00419935371877
-0.0065544204352
0.00393229534204
-0.00688929064421
0.00367624566063
-0.00721749921164
0.00342764662862
-0.00753505019176
0.00318457140018
-0.00783869614946
0.00294609926516
-0.00812584769421
0.00271188631298
-0.00839447964029
0.002481896669
-0.008643041726
0.00225623518181
-0.00887037846303
0.00203505130073
-0.00907566078822
0.00181848927515
-0.00925832805482
0.0016066661615
-0.00941803988946
0.00139966586086
-0.00955463609835
0.00119754208154
-0.00966810405603
0.00100032654357
-0.00975855187486
0.000808035852226