/*--------------------------------*- C++ -*----------------------------------*\
| =========                 |                                                 |
| \\      /  F ield         | OpenFOAM: The Open Source CFD Toolbox           |
|  \\    /   O peration     | Version:  v1806                                 |
|   \\  /    A nd           | Web:      www.OpenFOAM.com                      |
|    \\/     M anipulation  |                                                 |
\*---------------------------------------------------------------------------*/
FoamFile
{
    version     2.0;
    format      ascii;
    class       surfaceScalarField;
    location    "600";
    object      phia;
}
// * * * * * * * * * * * * * * * * * * * * * * * * * * * * * * * * * * * * * //

dimensions      [0 3 -1 0 0 0 0];
oriented        oriented;


internalField   nonuniform List<scalar> 
12640
(
-0.00307869653866
0.00307893311081
-0.00662493851954
0.00354656714439
-0.0102737406577
0.00364913968524
-0.0125379898153
0.00226454497656
-0.0135442891614
0.00100667924131
-0.0150548975013
0.00151097242423
-0.0162093614366
0.0011547490596
-0.0171728405352
0.00096372443453
-0.0179774839659
0.000804870542567
-0.0186436486425
0.000666380447383
-0.0191976558823
0.00055421152996
-0.0196607355339
0.000463278405878
-0.020048128518
0.000387585721068
-0.0203715612614
0.000323625479277
-0.0206407819668
0.000269412617767
-0.0208640401029
0.000223454252917
-0.0210482659083
0.000184424920016
-0.0211992187458
0.000151158961518
-0.0213216668267
0.000122659838357
-0.0214195356379
9.80893851981e-05
-0.0214960534359
7.67458115756e-05
-0.0215538630195
5.80475512869e-05
-0.0215951341808
4.15177973899e-05
-0.0216216471271
2.67702053785e-05
-0.0216348760477
1.34956535601e-05
-0.021636047527
1.44916808207e-06
-0.0216262001751
-9.55968539973e-06
-0.0216062261564
-1.96752797468e-05
-0.0215769135548
-2.90035577124e-05
-0.0215389953761
-3.75981153338e-05
-0.0214932098924
-4.54549132024e-05
-0.0214406295428
-5.22388816277e-05
-0.021383054382
-5.72227858294e-05
-0.0213239623785
-5.87286200176e-05
-0.0212591073227
-6.44810188328e-05
-0.0211420802824
-0.000116643604883
-0.0209732671896
-0.000168420314242
-0.0207616610783
-0.000211205851378
-0.0205270695317
-0.000234183733391
-0.0202774701342
-0.000249186198076
-0.0200185072843
-0.000258544029467
-0.0197536702279
-0.000264415361125
-0.0194852346272
-0.000268010799554
-0.0192147993608
-0.000270010487116
-0.0189436022674
-0.000270772047116
-0.0186727164948
-0.000270463785817
-0.0184031428795
-0.000269154294969
-0.0181358691255
-0.00026686045838
-0.017871900439
-0.000263560879244
-0.0176122976325
-0.000259203730903
-0.017358197055
-0.000253709518572
-0.0171108387592
-0.000246978263947
-0.0168715735046
-0.000238895327675
-0.0166418729463
-0.000229343432869
-0.0164233115497
-0.000218215924652
-0.0162175430527
-0.000205437021566
-0.0160262413137
-0.000190982880302
-0.0158510296701
-0.00017490739066
-0.0156933733866
-0.000157365026207
-0.0155544630098
-0.000138633772621
-0.0154350697286
-0.000119129491267
-0.0153354046338
-9.9415477864e-05
-0.0152549675661
-8.0199569925e-05
-0.0151924183859
-6.23249068228e-05
-0.0151454533097
-4.67518423891e-05
-0.0151107159662
-3.45360757421e-05
-0.0150837081548
-2.68163485167e-05
-0.0150587479753
-2.47793119096e-05
-0.0150288547938
-2.97207394917e-05
-0.0149858275235
-4.28633566114e-05
-0.0149198193361
-6.5850797789e-05
-0.0148203944797
-9.92721344066e-05
-0.0146739944192
-0.000146252628977
-0.0144730656856
-0.000200779607506
-0.0141926880065
-0.000280238507904
-0.0138527048445
-0.000339837476391
-0.013269403179
-0.000583166275924
-0.0124961653755
-0.000773121533682
-0.00848432831202
-0.00401148570352
-0.00848420649433
-0.00130892818155
0.00438833129271
-0.00429654760815
0.00653469781104
-0.0063953224505
0.00574834787366
-0.00925633535212
0.00512578927176
-0.0124718778727
0.00422238610732
-0.0146017853849
0.00364100297076
-0.0166345302858
0.00318761347883
-0.0185364253814
0.002865732216
-0.0203289374208
0.00259749916984
-0.0220161010457
0.00235365609783
-0.0235906533969
0.00212887635122
-0.0250493525188
0.00192208580129
-0.0263938030845
0.00173214438583
-0.0276284523101
0.00155838114562
-0.0287592485163
0.00140031637303
-0.0297928605273
0.00125717508365
-0.0307361486615
0.00112782453651
-0.0315958162881
0.00101094185903
-0.032378206271
0.000905169090778
-0.0330891940223
0.000809202200982
-0.0337341496483
0.000721831556514
-0.0343179298979
0.000641965280881
-0.0348449017898
0.000568633030465
-0.0353189668084
0.000500987132105
-0.0357436030314
0.000438290239646
-0.036121894491
0.000379908473493
-0.0364565758876
0.000325296446889
-0.0367500568834
0.000273990640514
-0.0370044735544
0.000225605266398
-0.0372216882282
0.000179819377739
-0.0374033580335
0.000136425130783
-0.0375505736571
9.51979656654e-05
-0.0376641604859
5.65930837502e-05
-0.037745711922
2.30625944831e-05
-0.0378248327619
1.48868464182e-05
-0.037963408634
2.21886126862e-05
-0.0380965110189
-3.50564727531e-05
-0.0381848964216
-0.000122551993388
-0.0382218232596
-0.000196984668088
-0.0382024411564
-0.000268291037395
-0.0381224383381
-0.000338267318579
-0.0379796843256
-0.000406887141028
-0.0377725299733
-0.000474882487472
-0.0374992213459
-0.000543036291642
-0.0371578736808
-0.000611838409003
-0.0367465296836
-0.000681528847079
-0.0362632084789
-0.000752199992742
-0.0357059511637
-0.000823846950922
-0.0350728723736
-0.000896374011637
-0.0343622281242
-0.00096958896362
-0.0335724952709
-0.00104318998028
-0.0327024747055
-0.00111675457017
-0.0317514116925
-0.0011897218223
-0.0307191475026
-0.0012613802125
-0.0296062909112
-0.00133085358349
-0.028414418154
-0.00139710041995
-0.0271462811667
-0.00145891934488
-0.0258060215868
-0.00151497603093
-0.0243993606358
-0.00156384387458
-0.0229337511927
-0.00160407032176
-0.0214184580825
-0.00163425820717
-0.0198645504894
-0.00165316719
-0.0182847819046
-0.00165982011156
-0.0166933542211
-0.00165361210273
-0.0151055658001
-0.00163440670564
-0.0135373640739
-0.00160261070826
-0.0120048284243
-0.00155923088646
-0.0105236143229
-0.00150587763764
-0.00910840453961
-0.00144481967863
-0.00777235952235
-0.00137880132566
-0.00652662307036
-0.00131148300014
-0.00537980886306
-0.00124598409059
-0.00433746942891
-0.00118848898326
-0.00340158212478
-0.00113656676521
-0.00256786632685
-0.0011138489105
-0.00182994586715
-0.00107766614849
-0.00114381538818
-0.00126919671877
-0.000527185908815
-0.00138962686478
0.00053226040527
-0.00507084985162
-0.00795182914469
-0.00571708084626
0.0101056086186
-0.00749638612881
0.00831426818898
-0.0074173991414
0.00566951977614
-0.00763984144525
0.00534834964023
-0.00830957131276
0.00489220727508
-0.00920592764684
0.00453743443102
-0.010330792849
0.00431254191203
-0.011541304658
0.00407630357851
-0.0127331210312
0.00378937195085
-0.0138502749709
0.00347086508801
-0.0148668359389
0.00314548923228
-0.0157739271698
0.00282922607708
-0.016572506328
0.00253076919177
-0.017268554073
0.00225447142302
-0.0178701567272
0.00200195904674
-0.0183859797312
0.00177303567829
-0.0188244964816
0.0015663776759
-0.0191935962299
0.00138007654051
-0.0195003998107
0.00121200772786
-0.0197512073962
0.00106004437305
-0.0199515154907
0.000922175562941
-0.0201060751347
0.000796561275378
-0.0202189613687
0.000681557987109
-0.0202936525509
0.000575718276001
-0.0203331036339
0.000477784546993
-0.0203398207989
0.00038667079024
-0.0203159252716
0.000301450089236
-0.0202632156084
0.000221332662545
-0.0201832202496
0.00014566621673
-0.0200772426834
7.39010504369e-05
-0.0199464461114
5.69277040231e-06
-0.0197918662749
-5.93144343485e-05
-0.0196141372678
-0.0001210633529
-0.0194073515603
-0.000183647082051
-0.0191321389887
-0.00026024578357
-0.0188211093871
-0.000288759528794
-0.0185363174874
-0.000319764632373
-0.0182876958152
-0.000371089391183
-0.0180683343164
-0.000416260673658
-0.0178803371661
-0.000456202789931
-0.017724286667
-0.000494232361048
-0.0176000329996
-0.000531056175398
-0.0175078614049
-0.000566970576281
-0.0174482649085
-0.000602550760434
-0.0174215469477
-0.00063847651478
-0.0174275828096
-0.000675415100403
-0.0174656742637
-0.000714033634166
-0.0175344253824
-0.000755023186895
-0.0176316275413
-0.000799102707982
-0.0177541467863
-0.000847002916033
-0.0178978246439
-0.00089944904723
-0.0180573851467
-0.000957133239991
-0.0182263635592
-0.00102068627708
-0.0183970534902
-0.00109063517482
-0.0185604960463
-0.00116735938345
-0.0187065130878
-0.00125103346775
-0.0188238134499
-0.00134157217466
-0.0189001751343
-0.00143856895415
-0.0189227283726
-0.00154124791546
-0.0188783320552
-0.00164842500313
-0.0187540497747
-0.00175850103646
-0.0185376943095
-0.00186948389595
-0.0182184177902
-0.00197905947081
-0.0177872911044
-0.00208470178917
-0.0172378293577
-0.00218383234336
-0.016566401697
-0.00227400178568
-0.0157724881187
-0.0023531080063
-0.0148587605935
-0.00241956757145
-0.0138309584274
-0.0024725834763
-0.0126976072942
-0.00251211175286
-0.0114694503745
-0.00253959692507
-0.0101588237063
-0.00255656321867
-0.0087777676404
-0.00256949525011
-0.00733736793055
-0.00257690878964
-0.00584183366382
-0.0026093293162
-0.00430356324198
-0.00261587427649
-0.00272793063596
-0.00284477825092
-0.00129321346237
-0.00282431859546
-1.02617174858e-05
-0.00635366553926
-0.00796209973349
-0.0107150367702
0.0208211779468
-0.00729876547466
0.00489817935083
-0.00578128830929
0.00415214685771
-0.00597998008447
0.00554712082832
-0.00705267410973
0.00596496280759
-0.00851052568433
0.00599533082753
-0.010057374976
0.00585942556658
-0.011540211567
0.00555916762978
-0.0128999027202
0.00514908646544
-0.0141254266248
0.00469640816694
-0.015224037778
0.00424411506753
-0.0162089279676
0.00381412591115
-0.017094710875
0.00341655596353
-0.017895203139
0.00305496201192
-0.0186223898824
0.00272913787642
-0.0192862202257
0.0024368527787
-0.019894799725
0.00217493787025
-0.020454678889
0.00193993167297
-0.0209711400045
0.00172843925403
-0.021448448927
0.00153731974605
-0.0218900754598
0.00136376363974
-0.0222988697705
0.00120531398039
-0.0226772089112
0.00105985131573
-0.023027107297
0.000925568492259
-0.0233503087125
0.000800934278221
-0.0236483534471
0.000684662223235
-0.0239226331199
0.000575673594675
-0.0241744338287
0.000473076234337
-0.0244049466454
0.000376119563962
-0.0246153200346
0.00028421441388
-0.0248064523837
0.000196763052196
-0.0249792906106
0.000113461445965
-0.0251337768012
3.33588854215e-05
-0.0252764702995
-4.10186257735e-05
-0.0254258392987
-0.000110944295523
-0.0255035104279
-0.000211157700992
-0.0255186217163
-0.000304725528493
-0.0254834479246
-0.000406337512486
-0.0253908239192
-0.000508961730354
-0.0252396098561
-0.000607496254788
-0.0250314726445
-0.000702451389886
-0.0247679556014
-0.00079465742619
-0.0244507415879
-0.000884270676654
-0.0240820415681
-0.000971339021697
-0.0236646234484
-0.00105598395996
-0.0232017947102
-0.00113833478958
-0.0226974294417
-0.00121848992635
-0.0221560102103
-0.00129653428649
-0.0215826424487
-0.001372561266
-0.0209830432523
-0.00144669280443
-0.020363489265
-0.00151909148691
-0.0197307309888
-0.0015899788593
-0.0190918518373
-0.00165964945986
-0.0184540782642
-0.00172849072804
-0.0178245202558
-0.00179699518665
-0.0172098552072
-0.00186577347983
-0.016615945549
-0.00193555200332
-0.0160474199208
-0.00200716135992
-0.0155072301743
-0.0020814993125
-0.0149962368772
-0.00215947620674
-0.0145128573399
-0.00224193321327
-0.0140528405435
-0.00232954933991
-0.0136092038861
-0.00242273939647
-0.0131723781733
-0.00252156647489
-0.0127305634038
-0.00262568047912
-0.012270297626
-0.00273429622124
-0.0117771945045
-0.00284623386628
-0.0112368192315
-0.00295996039308
-0.0106356329938
-0.00307378085773
-0.00996201166781
-0.00318573818587
-0.00920716488114
-0.00329444117227
-0.00836624713193
-0.00339747188281
-0.00743837388792
-0.00349735035454
-0.00642817383776
-0.00358708805179
-0.0053403148712
-0.0036971573852
-0.00419320051342
-0.00376296501226
-0.00298555587871
-0.0040523950493
-0.00183950919335
-0.0039703089979
-0.000545582414092
-0.00764762572056
-0.00850765370936
-0.00247148377
0.023292697257
-0.00129700248755
0.00372376882256
-0.00295955575989
0.00581476850565
-0.00503872029153
0.00762634270962
-0.00700095188893
0.00792723937646
-0.00878917236406
0.00778358526819
-0.0103344467337
0.00740472473867
-0.0116344454527
0.00685918486669
-0.0127310095798
0.00624566405722
-0.0136688908542
0.00563429857669
-0.0144831098959
0.00505833866316
-0.0151996555094
0.00453067095436
-0.0158375700064
0.00405446444999
-0.0164104609657
0.00362784074662
-0.0169278020982
0.00324646069431
-0.0173961052644
0.00290513078268
-0.0178198585076
0.00259865965852
-0.018202204338
0.00232223901675
-0.0185454000229
0.00207159029489
-0.0188511273734
0.00184299554316
-0.0191206937798
0.00163327267481
-0.019355164132
0.00143972035653
-0.0195554398928
0.00126005772871
-0.0197223096891
0.00109236273567
-0.0198564756684
0.000935019820584
-0.0199585705865
0.0007866709329
-0.020029164432
0.000646176813793
-0.0200687640757
0.000512579870862
-0.0200778192233
0.000385074605846
-0.0200566865882
0.000262976503566
-0.0200057163251
0.000145683564605
-0.0199249860143
3.26169709919e-05
-0.0198146635517
-7.70817415854e-05
-0.0196707525935
-0.000185052726948
-0.0194998537824
-0.000281971236381
-0.0193443489959
-0.000366795270917
-0.019197735305
-0.00045147601271
-0.019068575804
-0.000535637942158
-0.0189570280344
-0.000620654049596
-0.0188598297935
-0.000704842325822
-0.0187744704167
-0.000787961560436
-0.0186984665328
-0.000870814268168
-0.0186288070093
-0.00095408516759
-0.0185620283746
-0.00103827341582
-0.0184943026428
-0.00112386623687
-0.0184214482093
-0.00121134500946
-0.0183389629349
-0.00130113036629
-0.0182421026946
-0.00139354731393
-0.0181260028649
-0.00148881178531
-0.0179858277412
-0.0015870146715
-0.0178169541606
-0.00168810829056
-0.0176151775588
-0.00179189334349
-0.0173769414279
-0.00189801870455
-0.0170995683303
-0.00200599048347
-0.0167814827746
-0.002115201656
-0.0164223922699
-0.0022249776803
-0.0160234052904
-0.00233464629244
-0.0155870449119
-0.0024436214534
-0.0151171361044
-0.00255150115368
-0.0146185375161
-0.00265816020346
-0.0140967196642
-0.00276382976514
-0.0135571999136
-0.00286914033948
-0.0130048818633
-0.00297512205453
-0.0124433591706
-0.00308314649869
-0.0118742682624
-0.00319482208992
-0.0112967765648
-0.00331183146582
-0.0107072796226
-0.00343576774149
-0.0100993874669
-0.00356788246077
-0.00946424058549
-0.00370895101676
-0.00879124835656
-0.00385874637718
-0.00806921672279
-0.00401648179701
-0.00728835126049
-0.00417833835139
-0.00644219880667
-0.00434349885856
-0.00553225117868
-0.00449702347017
-0.00456589331306
-0.00466350506237
-0.00357062235426
-0.00475821732723
-0.00254742576186
-0.00507557978091
-0.00160232963832
-0.00491542798356
-0.00041551929276
-0.00883439089868
-0.00892320231615
-0.00014397585286
0.0234368796631
-0.000512134848666
0.00409200622475
-0.00352275181424
0.0088254359387
-0.00603879031015
0.010142422582
-0.00798594538089
0.00987442828656
-0.0095350984408
0.00933276482589
-0.0107502478772
0.00861989467173
-0.0117146834288
0.00782363595099
-0.0125122888497
0.00704328118048
-0.0132019693335
0.00632398710582
-0.0138201222251
0.00567649586366
-0.0143888409123
0.00509938981641
-0.0149212142595
0.00458683319225
-0.0154245143573
0.00413113112286
-0.0159023843639
0.00372431510388
-0.0163563422693
0.00335906717707
-0.0167867527725
0.00302904201243
-0.0171934206274
0.00272887235319
-0.017575940066
0.0024540681698
-0.0179338882562
0.00220089563473
-0.0182669273296
0.00196625646455
-0.0185748489446
0.00174758018477
-0.0188575907489
0.00154273059758
-0.0191152345811
0.00134993127991
-0.0193480009979
0.00116770394079
-0.0195562392946
0.00099482078053
-0.0197404215933
0.000830263823007
-0.0199011346531
0.000673191634201
-0.0200390793548
0.000522911258232
-0.0201550602422
0.000378843347018
-0.0202500235754
0.000240526151751
-0.0203250767346
0.000107543603366
-0.0203821941298
-2.00973855014e-05
-0.0204248448743
-0.000142541563512
-0.0204349654042
-0.000271996520817
-0.0204023918753
-0.000399519432952
-0.0203288761248
-0.000525147053464
-0.0202148161
-0.000649857351608
-0.0200627333318
-0.000772899710554
-0.0198747389345
-0.0008930026531
-0.0196534619733
-0.00100940655722
-0.0194022831008
-0.00112216289296
-0.0191249404833
-0.00123159803125
-0.0188253180765
-0.00133806625639
-0.0185073508218
-0.00144200269246
-0.018174895781
-0.00154396780738
-0.017831567455
-0.00164462348905
-0.0174805782501
-0.00174469825376
-0.0171245909096
-0.00184495628057
-0.0167655925977
-0.00194616557804
-0.016404792862
-0.00204905462539
-0.0160425631462
-0.00215426381627
-0.015678423653
-0.0022622918323
-0.0153110940937
-0.00237344684814
-0.0149386098988
-0.00248780475925
-0.0145585120626
-0.0026051869595
-0.014168098763
-0.00272516275751
-0.013764726624
-0.00284708904044
-0.0133461249535
-0.00297019001589
-0.0129106842988
-0.00309368043562
-0.0124576608151
-0.00321692489943
-0.0119872482695
-0.00333961724418
-0.0115004689455
-0.00346195826061
-0.0109988692671
-0.00358479612794
-0.0104840221493
-0.00370971210994
-0.00995690241857
-0.00383898752008
-0.00941717995141
-0.00397552004925
-0.00886259058596
-0.00412249546623
-0.00828846503525
-0.00428309442958
-0.00768760038644
-0.00445962290807
-0.00705055485096
-0.00465353355254
-0.0063669791488
-0.00486191505119
-0.00562725934684
-0.00508321451118
-0.00482755092994
-0.00529672754659
-0.00396919115809
-0.00552185571296
-0.00307686855569
-0.00565053675674
-0.00215288701996
-0.00599955676854
-0.00133289713859
-0.00573539562672
-0.000260621571911
-0.00990672047332
-0.00918382674273
0.000467203274804
0.0229695984027
-0.00130362879184
0.00586283765627
-0.00480292137574
0.0123247498072
-0.00705300203021
0.0123925281441
-0.00859281527449
0.0114142657353
-0.00971661388214
0.0104565852698
-0.0105487083714
0.00945200778816
-0.0112046933385
0.0084796367005
-0.0117679591415
0.00760655990004
-0.0122849548572
0.00684099320715
-0.0127791568621
0.00617070546621
-0.0132615086325
0.0055817461863
-0.0137358240911
0.00506114977885
-0.0142019090471
0.00459721320903
-0.0146575370696
0.00417993585217
-0.015099639708
0.00380115755073
-0.0155249745154
0.00345435937551
-0.0159304796487
0.00313435432135
-0.016313443151
0.00283700282326
-0.0166715648612
0.00255898232536
-0.0170029564738
0.00229760710318
-0.0173061121071
0.00205068843941
-0.01757986478
0.00181642983207
-0.0178233416423
0.00159334821519
-0.018035920194
0.00138021650347
-0.0182171910123
0.00117601912186
-0.0183669239363
0.000979918222218
-0.0184850425574
0.000791225227723
-0.0185715975526
0.000609375108225
-0.018626761188
0.000433909274524
-0.0186507701477
0.000264431337571
-0.0186439650794
0.000100628337798
-0.0186062005427
-5.79781702576e-05
-0.0185374749543
-0.000211389741169
-0.0184534840684
-0.000356115410646
-0.0183578987349
-0.000495236970453
-0.0182523901848
-0.000630791522747
-0.0181387145068
-0.000763672043291
-0.0180171460968
-0.000894609734126
-0.0178866771405
-0.00102361496972
-0.017745619904
-0.00115060843194
-0.0175921226314
-0.00127580505477
-0.0174242913199
-0.00139957404591
-0.0172402471357
-0.00152225383645
-0.017038253464
-0.0016441380667
-0.0168168434842
-0.00176551666191
-0.0165749120084
-0.0018866906936
-0.0163117733252
-0.00200796843857
-0.0160271922092
-0.00212966443275
-0.0157213807292
-0.00225209865457
-0.0153949601015
-0.002375591264
-0.015048885691
-0.002500447832
-0.0146843434077
-0.00262693727531
-0.0143026243062
-0.00275526203631
-0.0139049937973
-0.00288552436131
-0.0134925711559
-0.00301769129418
-0.0130662423931
-0.00315156602797
-0.0126266252873
-0.0032867733038
-0.0121741021227
-0.00342277332549
-0.0117089239398
-0.00355891178213
-0.0112313691109
-0.00369452632165
-0.0107419241625
-0.00382910234565
-0.0102414276299
-0.00396248888652
-0.00973112325248
-0.00409512868603
-0.00921254530818
-0.00422831257564
-0.0086872463751
-0.00436430375196
-0.00815628978511
-0.00450648866934
-0.00761966846157
-0.00465912479778
-0.00707566697271
-0.00482709924106
-0.00652038528107
-0.0050149048021
-0.00594747104128
-0.00522644386621
-0.00534872451855
-0.0054606553941
-0.00471491125055
-0.00571702024866
-0.00403987184808
-0.00597175897756
-0.00331957179237
-0.00624215240981
-0.00257233201925
-0.00639777119856
-0.00179427660083
-0.00677760992217
-0.00114078081484
-0.00638892162224
-0.00019592521032
-0.0108515740555
-0.00937977696773
0.000511961478452
0.0224576841732
-0.00220996194748
0.00858477224739
-0.00566467171457
0.015779467692
-0.00742012187709
0.0141479915763
-0.00854073621367
0.0125348963007
-0.00932219941324
0.0112380656338
-0.00990000420157
0.0100298295985
-0.0103864541224
0.00896610241272
-0.0108440130016
0.00806413327633
-0.0112998013903
0.00729679437851
-0.0117640105352
0.00663492572587
-0.01223845231
0.00605619698265
-0.0127204487847
0.00554315294607
-0.013205179142
0.00508194741677
-0.0136871153077
0.00466187261387
-0.014160803436
0.00427484258389
-0.0146212516429
0.003914800373
-0.0150641014597
0.0035771925475
-0.0154856773053
0.00325856232679
-0.0158829661282
0.00295624995401
-0.0162535617085
0.00266817632107
-0.0165955946905
0.00239268991935
-0.0169076622312
0.00212846045839
-0.0171887627906
0.00187440656726
-0.0174382404976
0.00162964647016
-0.0176557381815
0.00139346369373
-0.017841161403
0.00116528272734
-0.0179946480604
0.000944647700897
-0.0181165525394
0.000731209711749
-0.0182074197608
0.00052470108753
-0.018268010714
0.000324941265177
-0.0182992328737
0.000131764258057
-0.0183023755023
-5.49272655597e-05
-0.0182781291504
-0.000235733126777
-0.0182215042182
-0.000412841262185
-0.0181322859628
-0.000584559138055
-0.0180117469018
-0.000751436882352
-0.0178617800934
-0.000913747100415
-0.0176849366377
-0.00107156263525
-0.017483814762
-0.00122484704897
-0.0172609491277
-0.00137358419089
-0.0170188732244
-0.00151799057133
-0.0167600342481
-0.00165852126488
-0.0164866291495
-0.0017957653991
-0.0162004830546
-0.00193038802692
-0.0159029832061
-0.00206311740786
-0.0155950462929
-0.0021947247992
-0.0152771196347
-0.00232598826084
-0.0149492201555
-0.00245765242216
-0.0146110101385
-0.00259039225868
-0.0142618995514
-0.00272478002876
-0.0139011638013
-0.00286125615212
-0.0135280624028
-0.00300010531404
-0.0131419444972
-0.00314144054717
-0.0127423276047
-0.00328519568492
-0.0123289403586
-0.00343112681563
-0.0119017269676
-0.00357882159571
-0.0114608222403
-0.00372771427614
-0.011006510277
-0.00387711581631
-0.0105391991346
-0.00402624801801
-0.0100594212458
-0.00417432414996
-0.00956788828805
-0.00432065032601
-0.00906556984297
-0.0044648178404
-0.00855379760163
-0.00460690677553
-0.00803426849544
-0.00474784373767
-0.00750902519029
-0.00488954468966
-0.00698012641985
-0.0050353821024
-0.00644931291451
-0.00518992953689
-0.0059174250661
-0.0053589765234
-0.00538395666155
-0.0055483605578
-0.00484662370469
-0.00576376318629
-0.00430164633198
-0.00600561820918
-0.00374424686604
-0.00627440667369
-0.0031716913293
-0.0065443054053
-0.00258131995353
-0.00683251907696
-0.0019901570013
-0.00698893406574
-0.00138731247225
-0.00738045908953
-0.00093452719723
-0.00684170248654
-0.000138455827981
-0.0116476899843
-0.00951825339071
0.000384468799078
0.0220731182122
-0.00304670517997
0.0120159080235
-0.00610606768312
0.0188388197378
-0.00729998832791
0.0153419135131
-0.00807952939309
0.0133144462506
-0.00863149688978
0.0117900463024
-0.0090721211822
0.0104704686674
-0.00948902820617
0.00938302453182
-0.00991808510956
0.00849320444841
-0.0103698865408
0.0077486091154
-0.010845350436
0.00711040153912
-0.0113405847522
0.00655144182962
-0.0118491777999
0.00605175471094
-0.0123638070955
0.00559658340436
-0.0128772152824
0.00517528498641
-0.0133827045333
0.00478033320455
-0.0138743567529
0.00440645074703
-0.014347104406
0.00404993485401
-0.014796715515
0.00370816432467
-0.0152197303548
0.00337925168974
-0.0156133759485
0.0030618046754
-0.0159754755946
0.00275476801669
-0.0163043630757
0.00245732203046
-0.0165988066275
0.00216881972648
-0.0168579440664
0.00188874904026
-0.0170812292291
0.00161670942526
-0.0172683889726
0.00135239848844
-0.0174193883478
0.00109559847292
-0.0175344064483
0.000846174591121
-0.0176138118252
0.000604048661213
-0.0176581608731
0.000369228101578
-0.0176681606967
0.0001416975561
-0.0176448310278
-7.83276627606e-05
-0.0175900362093
-0.000290602457668
-0.0175079374837
-0.000495016917001
-0.0173996989113
-0.000692876232786
-0.0172667107515
-0.000884504808729
-0.017110133463
-0.00107040475229
-0.0169308563556
-0.00125092034686
-0.0167295778239
-0.00142620575176
-0.0165068933594
-0.00159634803634
-0.0162634532273
-0.00176150863198
-0.0160000676938
-0.00192198292751
-0.0157177241129
-0.00207818270032
-0.0154175645257
-0.00223061859968
-0.0151008450569
-0.00237990460064
-0.0147688736098
-0.0025267604065
-0.0144229274798
-0.00267199456094
-0.0140641655084
-0.00281647029837
-0.0136935501954
-0.00296105890449
-0.0133117932244
-0.00310658353067
-0.0129193339511
-0.00325375698817
-0.0125163561336
-0.00340311956828
-0.0121028408581
-0.00355498712048
-0.0116786474721
-0.00370941518253
-0.0112436069181
-0.00386618843339
-0.0107976082006
-0.00402483644278
-0.0103406676304
-0.00418466630435
-0.009872955733
-0.00434483473178
-0.00939481438801
-0.004504392257
-0.00890673766327
-0.00466239974627
-0.00840939221421
-0.00481799121024
-0.00790362154944
-0.00497057999827
-0.00739056866948
-0.0051199482815
-0.00687164811064
-0.00526674893338
-0.00634875889156
-0.00541241593956
-0.00582396947655
-0.005560150714
-0.00529959148999
-0.00571428514763
-0.00477769190148
-0.00588085329249
-0.0042600268497
-0.00606600199209
-0.00374757682699
-0.00627619041679
-0.00324091329077
-0.00651226065573
-0.0027411833876
-0.00677411937645
-0.00225247968516
-0.00703299967853
-0.00177768396921
-0.0073073118377
-0.00133589649648
-0.00743072668241
-0.000917992136188
-0.00779836522268
-0.000669399230129
-0.00709032415457
-3.6039603797e-05
-0.0122810811107
-0.00955431171128
0.000190808622714
0.0218822992712
-0.00368592917307
0.0158926241796
-0.0061274511865
0.0212803239164
-0.0068316192422
0.0160460756865
-0.00740174697802
0.0138845769151
-0.007836416251
0.0122247244792
-0.00822956520434
0.0108636299434
-0.00863965858495
0.00979313123065
-0.0090817259748
0.00893528516857
-0.00955692067869
0.00822381625692
-0.0100614866965
0.00761497907998
-0.0105887007323
0.00707866609001
-0.0111303553882
0.0065934183083
-0.0116779743887
0.00614420963478
-0.0122235333882
0.00572084936146
-0.0127598143571
0.0053166172443
-0.0132805478656
0.00492718484013
-0.0137804343581
0.0045498190772
-0.014255093797
0.00418281849868
-0.0147009781653
0.00382512753592
-0.0151152694481
0.00347608409199
-0.0154957785536
0.00313526173947
-0.0158408526438
0.0028023771899
-0.0161492950042
0.00247723950348
-0.0164202977335
0.00215972555689
-0.0166533869873
0.0018497687659
-0.0168483795817
0.00154735752864
-0.0170053476743
0.00125252929533
-0.017124597776
0.000965383829223
-0.0172066410954
0.000686047516799
-0.0172522278356
0.00041476706809
-0.0172622580502
0.000151676853347
-0.0172380806982
-0.000102558933528
-0.017179783193
-0.0003489564451
-0.0170872877596
-0.000587569710079
-0.0169620273866
-0.000818194550616
-0.0168055550114
-0.00104103516872
-0.0166197900769
-0.00125622743849
-0.0164068412051
-0.00146392620243
-0.0161688267262
-0.0016642761685
-0.0159077762129
-0.00185745294181
-0.0156256029723
-0.00204373443879
-0.0153240974956
-0.00222353870157
-0.0150049116133
-0.00239741633496
-0.0146695444819
-0.00256603057156
-0.0143193428521
-0.00273014788813
-0.0139555091803
-0.0028906322737
-0.0135791073673
-0.00304843084302
-0.0131910615403
-0.00320454669029
-0.0127921480529
-0.0033599988164
-0.0123829840586
-0.00351576975272
-0.0119640179079
-0.0036727409925
-0.0115355311067
-0.00383161992069
-0.0110976555443
-0.00399287185575
-0.0106504145258
-0.00415666117612
-0.0101937827107
-0.00432282110652
-0.00972775429765
-0.00449086186608
-0.0092524272958
-0.004659986618
-0.00876803797636
-0.00482921409102
-0.00827502484212
-0.00499739197038
-0.00777399398311
-0.00516341447582
-0.00726576688642
-0.00532619881741
-0.00675128984752
-0.00548503472389
-0.00623181015781
-0.00563940264438
-0.00570865051867
-0.00578988027752
-0.00518374513282
-0.00593729021346
-0.00465903387928
-0.00608482863874
-0.00413709732628
-0.00623618880974
-0.00362047152672
-0.00639744688918
-0.00311272158065
-0.006573722557
-0.00261741193951
-0.00677147311121
-0.00213935581692
-0.00699029361753
-0.00168707274289
-0.00722638687305
-0.00127248229421
-0.00744758039051
-0.000908556096324
-0.00767124278297
-0.000604375305819
-0.00773491042818
-0.000410914876242
-0.00799184123473
-0.000332220661147
-0.00716903311551
0.000202196570934
-0.0128155301353
-0.00935215103552
-9.53054210342e-06
0.0218917416635
-0.00410213459632
0.0199851767725
-0.00583884660749
0.0230170093788
-0.00620107259969
0.0164082883045
-0.00667921626749
0.0143627184801
-0.00706729206209
0.0126128056754
-0.00745807125018
0.0112544185223
-0.00788527875786
0.0102203498334
-0.00835209977849
0.0094021171194
-0.00885583823465
0.00872756501004
-0.00939051639477
0.0081496663735
-0.00994781545559
0.00763597327115
-0.010518475118
0.00716408475695
-0.0110933500602
0.00671909006757
-0.0116640030072
0.00629150608687
-0.0122229822803
0.00587559849994
-0.0127639116451
0.00546811398285
-0.0132814685698
0.00506737349212
-0.0137713017135
0.00467264651983
-0.0142299200344
0.00428373808394
-0.0146545762763
0.00390072967177
-0.0150431563604
0.00352382828606
-0.015394081634
0.0031532858831
-0.0157062253379
0.00278936365367
-0.0159788435654
0.00243232114359
-0.0162115191827
0.00208241877567
-0.016404116569
0.00173992624542
-0.0165567467006
0.00140512785616
-0.0166697385853
0.00107834118232
-0.0167436182938
0.000759890033711
-0.0167790881885
0.000450197169783
-0.0167769907311
0.000149537352056
-0.0167383126264
-0.000141281230322
-0.0166645282002
-0.000422786250682
-0.0165569703332
-0.000695173017796
-0.016416709956
-0.000958499961161
-0.0162450633995
-0.00121272613657
-0.0160434451731
-0.00145788900574
-0.0158133805508
-0.00169403287935
-0.0155564885858
-0.00192120850022
-0.0152744702788