/*--------------------------------*- C++ -*----------------------------------*\
| =========                 |                                                 |
| \\      /  F ield         | OpenFOAM: The Open Source CFD Toolbox           |
|  \\    /   O peration     | Version:  v1806                                 |
|   \\  /    A nd           | Web:      www.OpenFOAM.com                      |
|    \\/     M anipulation  |                                                 |
\*---------------------------------------------------------------------------*/
FoamFile
{
    version     2.0;
    format      ascii;
    class       volVectorField;
    location    "600";
    object      U;
}
// * * * * * * * * * * * * * * * * * * * * * * * * * * * * * * * * * * * * * //

dimensions      [0 1 -1 0 0 0 0];


internalField   nonuniform List<vector> 
6400
(
(0.00601890365292 0.00780517282597 0)
(0.01371772766 0.00500946493131 0)
(0.0182277375675 0.00416710883167 0)
(0.0174804888247 0.00426682437586 0)
(0.0137647114703 -0.00105010677729 0)
(-0.0134507658428 -0.0138461807069 0)
(-0.0372804461098 -0.0144338291632 0)
(-0.0611374362714 -0.0143464796453 0)
(-0.0853754488016 -0.0140197178164 0)
(-0.109309852337 -0.013520553762 0)
(-0.132564488792 -0.0128976469429 0)
(-0.154875802685 -0.0121956121764 0)
(-0.176067192659 -0.0114504118497 0)
(-0.19603015395 -0.0106898785434 0)
(-0.214709444938 -0.00993475964555 0)
(-0.232090451077 -0.00919985625444 0)
(-0.248188469262 -0.00849511976569 0)
(-0.263039813306 -0.00782665914958 0)
(-0.276694637049 -0.00719763323948 0)
(-0.289211321102 -0.00660901360216 0)
(-0.300652225347 -0.00606021464628 0)
(-0.311080589536 -0.00554959707994 0)
(-0.320558364574 -0.00507485676058 0)
(-0.329144774101 -0.00463331571365 0)
(-0.336895431964 -0.0042221317258 0)
(-0.343861867018 -0.00383844369857 0)
(-0.350091343235 -0.00347946602013 0)
(-0.355626878718 -0.00314254517279 0)
(-0.360507393052 -0.00282518563678 0)
(-0.364767923717 -0.00252505155859 0)
(-0.368439878463 -0.00223994675582 0)
(-0.371551323337 -0.00196778429878 0)
(-0.374127237635 -0.00170652615976 0)
(-0.376189654825 -0.00145400477926 0)
(-0.37775741124 -0.00120755810733 0)
(-0.378845492137 -0.000963769874244 0)
(-0.379464666754 -0.000719042759839 0)
(-0.379624354033 -0.000471422629146 0)
(-0.379334613902 -0.000221005331865 0)
(-0.378591093104 2.77928019145e-05 0)
(-0.377406915016 0.000271448004063 0)
(-0.375792413165 0.000509665974176 0)
(-0.373757430015 0.000743032814013 0)
(-0.371310389604 0.000972428219746 0)
(-0.368458112214 0.00119881480161 0)
(-0.365205771067 0.0014231624283 0)
(-0.361556914462 0.00164641767795 0)
(-0.357513525635 0.00186948163583 0)
(-0.353076119639 0.00209318973137 0)
(-0.348243884461 0.00231828531237 0)
(-0.343014875724 0.00254539197872 0)
(-0.337386271908 0.00277498125438 0)
(-0.331354693145 0.00300734375068 0)
(-0.324916580075 0.00324256233062 0)
(-0.318068622017 0.00348049717992 0)
(-0.310808214673 0.00372078232883 0)
(-0.303133918659 0.00396284428919 0)
(-0.295045880882 0.00420594215751 0)
(-0.28654617303 0.00444923903709 0)
(-0.277638995086 0.00469190260993 0)
(-0.268330687754 0.00493324264193 0)
(-0.258629496094 0.00517288104494 0)
(-0.248545028142 0.00541095968963 0)
(-0.238087355661 0.00564837920116 0)
(-0.227265708274 0.00588707206358 0)
(-0.216086718912 0.00613030091465 0)
(-0.204552193682 0.00638298183096 0)
(-0.192656398777 0.00665201129974 0)
(-0.18038286418 0.00694658112401 0)
(-0.167700717044 0.00727842031702 0)
(-0.154560653782 0.00766184328953 0)
(-0.140891108636 0.00811346204459 0)
(-0.126596263648 0.00865103723709 0)
(-0.111557502701 0.00928983742142 0)
(-0.0956339657739 0.0100343277789 0)
(-0.0786565938661 0.010866583959 0)
(-0.060478692825 0.0117348711524 0)
(-0.0413458635422 0.0124829872121 0)
(-0.0228302530601 0.0123818129195 0)
(-0.00823777267897 0.00826171885913 0)
(0.0036153514663 0.0173497615697 0)
(0.00905551001414 0.0112859303585 0)
(0.00318465537394 -9.4444999298e-05 0)
(-0.0231970771345 -0.0182756113778 0)
(-0.0427074143785 -0.0270652227941 0)
(-0.0648396076384 -0.0328242651132 0)
(-0.0881333443022 -0.03516399431 0)
(-0.112161738209 -0.0359715257419 0)
(-0.136427157027 -0.0358646386806 0)
(-0.160261790048 -0.035108377094 0)
(-0.18327776406 -0.0338825994495 0)
(-0.205210108436 -0.0323285342073 0)
(-0.22589045947 -0.0305596920753 0)
(-0.245222909682 -0.0286666138206 0)
(-0.263166474206 -0.0267198293284 0)
(-0.279720835712 -0.0247725210489 0)
(-0.294914691721 -0.0228631717322 0)
(-0.308796361817 -0.0210181673623 0)
(-0.321426405184 -0.0192542490819 0)
(-0.332871993073 -0.017580717345 0)
(-0.343202763908 -0.0160013292342 0)
(-0.352487889014 -0.0145158686267 0)
(-0.360794093349 -0.0131214007125 0)
(-0.368184405979 -0.0118132423651 0)
(-0.374717453408 -0.0105856896253 0)
(-0.380447139767 -0.00943254596286 0)
(-0.38542259654 -0.00834749386043 0)
(-0.389688314145 -0.00732434263808 0)
(-0.393284384303 -0.00635718158123 0)
(-0.396246796686 -0.00544045710195 0)
(-0.398607746764 -0.00456900230738 0)
(-0.400396002765 -0.00373803544797 0)
(-0.401637338318 -0.00294307660388 0)
(-0.402354955892 -0.00217957293138 0)
(-0.40256935429 -0.00144219545324 0)
(-0.402296824846 -0.000725250081007 0)
(-0.40154714125 -2.61580225597e-05 0)
(-0.400348542046 0.000653456345357 0)
(-0.398725967356 0.0013139529749 0)
(-0.396709800114 0.00195762833179 0)
(-0.394310497653 0.00258471977279 0)
(-0.391536983265 0.003196918105 0)
(-0.388395541918 0.00379635091179 0)
(-0.384890926469 0.00438530321788 0)
(-0.381026598962 0.00496609357163 0)
(-0.376804799593 0.00554101737555 0)
(-0.372226565216 0.00611230693213 0)
(-0.367291750501 0.00668208751557 0)
(-0.361999077146 0.00725232044634 0)
(-0.356346226949 0.00782473141423 0)
(-0.35032999135 0.00840072562555 0)
(-0.343946485537 0.00898129519732 0)
(-0.337191431616 0.0095669262812 0)
(-0.330060508188 0.0101575162986 0)
(-0.322549757537 0.0107523129297 0)
(-0.314656031761 0.0113498882594 0)
(-0.30637745141 0.0119481613975 0)
(-0.297713839705 0.0125444824309 0)
(-0.288667089104 0.0131357883036 0)
(-0.279241409295 0.0137188386898 0)
(-0.269443404082 0.0142905361522 0)
(-0.259281922165 0.014848331557 0)
(-0.248767631628 0.015390711563 0)
(-0.237912271244 0.015917762479 0)
(-0.226727541181 0.0164318015714 0)
(-0.215223601263 0.0169380646392 0)
(-0.203407161367 0.0174454338503 0)
(-0.191279175298 0.0179671600574 0)
(-0.178832149951 0.0185215400207 0)
(-0.166047060341 0.0191324525092 0)
(-0.15289002905 0.0198294179104 0)
(-0.139309201708 0.0206468933119 0)
(-0.125232590123 0.0216218776299 0)
(-0.110567800791 0.0227865340971 0)
(-0.0952031699582 0.0241511318388 0)
(-0.0790108941462 0.0256774272249 0)
(-0.0618752329498 0.027242930154 0)
(-0.0438414769133 0.0285070907329 0)
(-0.025668506849 0.0282709526201 0)
(-0.0103848094701 0.0226886945825 0)
(-0.00108414748019 0.0174351286845 0)
(-0.0149686057568 -0.00523353711601 0)
(-0.03342309953 -0.0249925816355 -8.58011120982e-29)
(-0.0539812798208 -0.0384126730977 5.40309902072e-29)
(-0.0751344706706 -0.048354720259 4.07310725135e-29)
(-0.0968438176125 -0.0553366148479 -3.31697354318e-29)
(-0.118910826158 -0.0588248725642 2.81786556343e-29)
(-0.141188728733 -0.0599938901941 -2.49799594445e-29)
(-0.163234991936 -0.0596081853813 0)
(-0.184606768463 -0.058116842491 0)
(-0.205008407649 -0.0558469066923 0)
(-0.224244930474 -0.053050062314 0)
(-0.24220640559 -0.0499237583877 0)
(-0.258846283895 -0.0466217586369 0)
(-0.274164084528 -0.0432610978225 0)
(-0.288191243354 -0.0399278996059 0)
(-0.300979932856 -0.0366827434596 0)
(-0.312594499739 -0.0335656589045 0)
(-0.323105147087 -0.0306006445234 0)
(-0.332583465534 -0.0277996037633 0)
(-0.341099426541 -0.0251656425217 0)
(-0.348719485364 -0.0226957324935 0)
(-0.355505493092 -0.0203827910713 0)
(-0.361514181301 -0.018217254 0)
(-0.366797024448 -0.0161882288266 0)
(-0.371400354936 -0.0142843132795 0)
(-0.375365626929 -0.0124941562433 0)
(-0.378729767696 -0.0108068224512 0)
(-0.381525565366 -0.00921201064843 0)
(-0.383782037741 -0.0077001696687 -7.12968456751e-29)
(-0.385524833403 -0.00626255300879 7.12360631261e-29)
(-0.386776567707 -0.00489122386773 0)
(-0.387557509688 -0.00357893816799 0)
(-0.387886329022 -0.00231868582556 0)
(-0.387779040178 -0.00110321240796 0)
(-0.387244037665 7.30986018124e-05 0)
(-0.386301304635 0.00120782111165 0)
(-0.384978731011 0.00229892813133 0)
(-0.383274025849 0.00335318419914 0)
(-0.381196374833 0.00437733941316 0)
(-0.378752556993 0.00537713998166 0)
(-0.375949101028 0.0063566171433 0)
(-0.372791452748 0.00731936222436 0)
(-0.369283950394 0.00826883220599 0)
(-0.365429806942 0.0092084442685 0)
(-0.361231090163 0.0101415887605 0)
(-0.356688701685 0.01107159765 0)
(-0.351802371199 0.0120016813775 0)
(-0.346570682528 0.0129348324763 0)
(-0.340991147667 0.0138737020803 0)
(-0.335060342968 0.0148204506759 0)
(-0.328774118943 0.0157765859806 0)
(-0.322127890236 0.0167427972386 0)
(-0.315117006231 0.0177188067594 0)
(-0.307737194565 0.0187032547799 0)
(-0.299985060863 0.019693643722 0)
(-0.291858617274 0.0206863609477 0)
(-0.283357802644 0.0216768051164 0)
(-0.274484947921 0.0226596298752 0)
(-0.265245134432 0.0236291209082 0)
(-0.255646389038 0.0245797075999 0)
(-0.24569966077 0.0255066116898 0)
(-0.235418527818 0.026406618797 0)
(-0.224818592142 0.0272789608602 0)
(-0.213916528759 0.0281262845747 0)
(-0.202728769895 0.0289556764267 0)
(-0.191269802913 0.0297797246515 0)
(-0.179550118296 0.0306175129114 0)
(-0.16757385764 0.0314954623233 0)
(-0.155336029656 0.0324480493646 0)
(-0.142819506842 0.0335176645204 0)
(-0.129992276089 0.034753189861 0)
(-0.116804661441 0.036206640631 0)
(-0.103186384815 0.0379238877356 0)
(-0.0890454703941 0.0399233545644 0)
(-0.0742726023128 0.0421567544914 0)
(-0.0587463571033 0.0444349952321 0)
(-0.0423458255686 0.0462317174292 0)
(-0.0253004859793 0.0460484632224 0)
(-0.00998585609161 0.0396489558275 0)
(-0.0107469296435 0.00431491840128 0)
(-0.0318836714971 -0.0255227073903 0)
(-0.0518604949463 -0.0445128610326 0)
(-0.073097825852 -0.0591581998098 0)
(-0.0942309223625 -0.0697083822208 0)
(-0.115191543513 -0.0767390357763 0)
(-0.135846867128 -0.0802600807631 0)
(-0.156079759513 -0.081130646711 0)
(-0.175645728906 -0.0800728077657 0)
(-0.194322810549 -0.0776257606657 0)
(-0.211956607998 -0.0742147259765 0)
(-0.22845476616 -0.0701737933681 0)
(-0.243780463784 -0.0657638945134 0)
(-0.257938144771 -0.0611848201992 0)
(-0.27096046241 -0.0565849687191 0)
(-0.282897345228 -0.0520701435649 0)
(-0.293807703337 -0.0477117232831 0)
(-0.303753580086 -0.043554108055 0)
(-0.31279632595 -0.0396212602698 0)
(-0.32099430784 -0.0359222178086 0)
(-0.328401703402 -0.0324555599499 0)
(-0.335068011205 -0.0292128934649 0)
(-0.341038000033 -0.0261814824806 0)
(-0.346351908451 -0.0233461685307 0)
(-0.351045765522 -0.0206907278985 0)
(-0.355151762814 -0.018198799128 0)
(-0.358698634961 -0.0158544888509 0)
(-0.361712029203 -0.013642741799 0)
(-0.364214846421 -0.0115495429902 0)
(-0.366227527077 -0.00956201622257 0)
(-0.367768318458 -0.00766845693693 0)
(-0.368853608638 -0.00585826422064 0)
(-0.36949869206 -0.00412165578809 0)
(-0.369718453421 -0.0024492592146 0)
(-0.369524640936 -0.000832541496303 0)
(-0.368917621514 0.000733739811125 0)
(-0.367938275763 0.00224770588492 0)
(-0.366578093077 0.00371266295378 0)
(-0.364848974785 0.00513608505977 0)
(-0.362758784752 0.00652281342273 0)
(-0.360314681366 0.00787799338052 0)
(-0.357522990139 0.00920644778611 0)
(-0.354389075214 0.010512829662 0)
(-0.350917299577 0.0118017272866 0)
(-0.347110974546 0.0130777238495 0)
(-0.342972300159 0.0143454063791 8.50187435385e-29)
(-0.338502306158 0.015609326462 -8.57819795081e-29)
(-0.333700809209 0.0168739123346 0)
(-0.328566404211 0.0181433329863 0)
(-0.323096508182 0.0194213165074 0)
(-0.317287474809 0.0207109301756 0)
(-0.311134795171 0.0220143344605 0)
(-0.304633395645 0.0233325302006 0)
(-0.297778036745 0.0246651230193 0)
(-0.290563808216 0.0260101343826 0)
(-0.2829867051 0.0273638911715 0)
(-0.275044257212 0.0287210287555 0)
(-0.266736171676 0.0300746388089 1.24198159876e-28)
(-0.25806493835 0.0314165879158 -1.27308407826e-28)
(-0.249036339518 0.0327380252957 0)
(-0.239659803381 0.0340300847613 0)
(-0.229948540025 0.0352847795633 0)
(-0.219919406473 0.0364960710507 0)
(-0.209592459775 0.0376610830485 0)
(-0.198990162713 0.0387814424987 0)
(-0.188136250193 0.0398646573853 0)
(-0.177054202333 0.0409255846632 0)
(-0.165765353128 0.0419878022379 0)
(-0.154286910122 0.043084596419 0)
(-0.142629346078 0.0442602778977 0)
(-0.130793358119 0.0455702047136 0)
(-0.118767493464 0.0470788556946 0)
(-0.106525242378 0.0488570362011 0)
(-0.0940198812117 0.0509733941447 0)
(-0.0811796990404 0.0534726638468 0)
(-0.0679080398343 0.0563320814736 0)
(-0.0540671791968 0.0593677786956 0)
(-0.0394121747437 0.0620082723833 0)
(-0.023882468775 0.0625909347396 0)
(-0.00913619767584 0.0561872417774 0)
(-0.02056010369 -0.0222362187331 0)
(-0.0389723824934 -0.046983768659 0)
(-0.0611910993627 -0.0658169703784 0)
(-0.0830259234631 -0.0803479853482 0)
(-0.10398563872 -0.090552013414 0)
(-0.124077909222 -0.0969042736609 0)
(-0.143292147064 -0.0997827837363 0)
(-0.16162477306 -0.0999178647818 0)
(-0.17900240784 -0.0979795695083 0)
(-0.195364871311 -0.0945351456628 0)
(-0.210680445083 -0.0900563444802 0)
(-0.224946663917 -0.0849224454816 0)
(-0.238186294718 -0.0794298213318 0)
(-0.25043894243 -0.0738023129668 0)
(-0.261753331716 -0.0682023157539 0)
(-0.272181249735 -0.0627419290058 0)
(-0.281773556788 -0.0574935461925 0)
(-0.290577978226 -0.0524993542703 0)
(-0.298638186976 -0.04777941281 0)
(-0.305993685871 -0.0433382056376 0)
(-0.312680102696 -0.0391697358903 0)
(-0.318729638498 -0.0352613449833 0)
(-0.324171521602 -0.0315964832025 0)
(-0.329032401791 -0.028156658506 0)
(-0.333336662389 -0.0249227664204 0)
(-0.33710666325 -0.0218759702134 0)
(-0.340362934231 -0.0189982564291 0)
(-0.343124335495 -0.0162727573432 0)
(-0.34540818136 -0.0136839157258 0)
(-0.347230323495 -0.0112175705011 0)
(-0.348605281574 -0.00886098946111 -7.6861727258e-29)
(-0.349546608683 -0.00660273215289 7.7140753152e-29)
(-0.350067660116 -0.00443215831349 0)
(-0.350181418605 -0.00233915714885 0)
(-0.3498960989 -0.000316274896889 0)
(-0.349208065896 0.00163751155773 0)
(-0.348167620514 0.00352517772332 0)
(-0.346759566829 0.00535626778619 0)
(-0.344996522987 0.00713747231661 0)
(-0.342885211155 0.00887499519957 0)
(-0.340432367968 0.010574707101 0)
(-0.337644140742 0.0122422104657 0)
(-0.334525955015 0.0138829996978 0)
(-0.331082395296 0.0155025809501 0)
(-0.327317091371 0.0171065406588 0)
(-0.323232601606 0.0187005572015 0)
(-0.318830299349 0.0202903512922 0)
(-0.31411027656 0.021881571854 0)
(-0.309071283661 0.0234796146198 0)
(-0.303710727711 0.0250893757572 0)
(-0.298024752007 0.0267149477811 0)
(-0.292008418851 0.0283592741166 0)
(-0.28565601231 0.0300237863491 0)
(-0.278961469692 0.0317080578742 0)
(-0.271918940334 0.0334095124365 0)
(-0.264523459323 0.035123231337 0)
(-0.256771707354 0.0368419079113 0)
(-0.248662811054 0.0385559951981 0)
(-0.24019912691 0.0402540784508 0)
(-0.23138693893 0.0419235041048 0)
(-0.222237001889 0.0435512604915 0)
(-0.21276485848 0.0451251152464 0)
(-0.202990865437 0.0466349783691 0)
(-0.192939903884 0.0480744203023 0)
(-0.182640692513 0.0494424014521 0)
(-0.172124808181 0.0507449193822 0)
(-0.161425305016 0.0519968482695 0)
(-0.150574706528 0.0532238382116 0)
(-0.139603580245 0.0544629176877 0)
(-0.128538004964 0.0557649230721 0)
(-0.11739593579 0.0571950006026 0)
(-0.106185066074 0.0588292294428 0)
(-0.0949009785315 0.0607537697615 0)
(-0.0835211145433 0.0630599250992 0)
(-0.0719951901044 0.065823002601 0)
(-0.0602443415802 0.0690616329744 0)
(-0.0481338616093 0.0726444160545 0)
(-0.0353411735968 0.0760686201667 0)
(-0.021708955693 0.0776344469495 0)
(-0.00806133384248 0.0715584544295 0)
(-0.0200696759157 -0.0471101362509 0)
(-0.0405544162686 -0.0709406629598 0)
(-0.0646298607679 -0.0884091505105 0)
(-0.0866953941712 -0.101738236318 0)
(-0.107288108266 -0.110780641508 0)
(-0.126485184324 -0.115961247438 0)
(-0.144393336919 -0.11775759263 0)
(-0.161118088575 -0.116842093475 0)
(-0.176716840531 -0.113857970381 0)
(-0.191244300623 -0.109376827094 0)
(-0.204757483351 -0.103884098132 0)
(-0.217316572886 -0.0977732853969 0)
(-0.228982427682 -0.0913504122842 0)
(-0.239812865186 -0.0848433909435 0)
(-0.249860083689 -0.0784141614771 0)
(-0.259169505238 -0.0721715583383 0)
(-0.26777990329 -0.0661834825834 0)
(-0.27572432406 -0.0604875163441 0)
(-0.283031317692 -0.0550996146178 0)
(-0.289726128874 -0.0500208753987 0)
(-0.295831658471 -0.0452426061915 0)
(-0.301369137238 -0.0407499964124 0)
(-0.306358543572 -0.0365247119421 0)
(-0.310818810209 -0.0325466893239 0)
(-0.314767906188 -0.0287953527017 0)
(-0.318222842257 -0.0252504231464 0)
(-0.321199657045 -0.0218924419798 0)
(-0.323713401015 -0.0187030902016 0)
(-0.325778076055 -0.0156653732747 0)
(-0.327406696744 -0.0127637343182 0)
(-0.328611240963 -0.00998411566317 0)
(-0.329403353616 -0.00731384861929 0)
(-0.329795074476 -0.00474116040743 0)
(-0.32979666776 -0.00225513546936 0)
(-0.32940915477 0.000151286175139 0)
(-0.328657160727 0.00247647946441 0)
(-0.327546450016 0.00472561429754 0)
(-0.326081485264 0.00691117409268 0)
(-0.324271950733 0.00903941617495 0)
(-0.322125046744 0.0111168839323 0)
(-0.31964763627 0.01314991096 0)
(-0.316846101833 0.0151447186648 0)
(-0.313726266507 0.0171075465635 0)
(-0.310293260969 0.0190447719502 0)
(-0.30655136486 0.020962986374 0)
(-0.302503831249 0.0228690113659 0)
(-0.298152706624 0.0247698413331 0)
(-0.293498663833 0.0266725034976 0)
(-0.288540871011 0.0285838285158 0)
(-0.28327692423 0.0305101304858 0)
(-0.277702874575 0.032456804009 0)
(-0.271813379996 0.0344278565727 0)
(-0.26560200756 0.0364254074118 0)
(-0.259061701271 0.0384491962372 0)
(-0.252185417607 0.0404961544192 0)
(-0.244966921222 0.0425600918385 0)
(-0.237401712737 0.0446315686613 0)
(-0.229488029588 0.0466980220597 0)
(-0.22122785887 0.0487441740166 0)
(-0.212627867585 0.0507527890678 0)
(-0.203700174799 0.0527057415711 0)
(-0.194462884926 0.0545854139112 0)
(-0.184940260278 0.0563764209898 0)
(-0.175162623553 0.0580673847559 0)
(-0.165165681675 0.0596532251524 0)
(-0.154989647127 0.0611369896526 0)
(-0.144678156469 0.0625319430072 0)
(-0.13427535211 0.0638647659049 0)
(-0.123825640201 0.06517430399 0)
(-0.113370848796 0.0665161579998 0)
(-0.102945938654 0.0679649913911 0)
(-0.0925754639918 0.0696066134925 0)
(-0.0822733642015 0.0715392764952 0)
(-0.0720403745035 0.0738765966625 0)
(-0.061844136403 0.0767246267579 0)
(-0.0516265979851 0.0801485750845 0)
(-0.0412785465385 0.0840897293365 0)
(-0.0304235609341 0.0881739961053 0)
(-0.0189795040927 0.0907943427381 0)
(-0.00684525426366 0.0852879663207 0)
(-0.0186771832366 -0.074536147765 0)
(-0.0398913691046 -0.0960965669835 0)
(-0.0645966404128 -0.111456890894 0)
(-0.0863536574306 -0.122951326377 0)
(-0.106355645041 -0.130319084651 0)
(-0.124634492836 -0.133970698352 0)
(-0.141383392958 -0.134402422932 0)
(-0.15677793134 -0.132250802432 0)
(-0.170961232221 -0.128136652189 0)
(-0.184062158664 -0.122620360415 0)
(-0.196193803115 -0.116178874148 1.15501326073e-28)
(-0.207453461311 -0.109197093205 -1.13939941699e-28)
(-0.217921988979 -0.101971057994 0)
(-0.227664070183 -0.0947178539901 0)
(-0.236729902884 -0.0875889031203 0)
(-0.245157829835 -0.0806838627577 0)
(-0.252977327026 -0.0740633657762 0)
(-0.260211793818 -0.0677597150574 0)
(-0.266880810916 -0.0617853130368 0)
(-0.27300175274 -0.0561390098251 0)
(-0.278590799143 -0.0508107331548 0)
(-0.28366347205 -0.0457847948145 0)
(-0.288234849206 -0.041042221394 0)
(-0.292319577522 -0.0365623851794 0)
(-0.295931793704 -0.0323241385887 0)
(-0.299085017878 -0.0283065935566 0)
(-0.301792067686 -0.0244896479886 0)
(-0.304065002611 -0.0208543322391 0)
(-0.305915055327 -0.0173830305009 0)
(-0.307352584713 -0.0140596107212 0)
(-0.308387200042 -0.0108694773364 0)
(-0.309028634255 -0.00779949825799 8.52647681425e-29)
(-0.309287416024 -0.00483778329355 -8.59899417054e-29)
(-0.309170879545 -0.00197394613469 0)
(-0.308673891648 0.000798946059135 0)
(-0.307834183956 0.00348198494692 0)
(-0.306639279951 0.006081774745 0)
(-0.305100695367 0.00860939769913 0)
(-0.303225819838 0.0110723345753 0)
(-0.301021899742 0.0134775767539 0)
(-0.298496024685 0.0158317814704 0)
(-0.295655092285 0.0181415445151 0)
(-0.292505683579 0.0204136098135 0)
(-0.289053884147 0.0226550318784 0)
(-0.285305065809 0.0248732792748 0)
(-0.281263639275 0.0270762651472 0)
(-0.276932791196 0.0292722889098 0)
(-0.272314225499 0.0314698735345 0)
(-0.267407936763 0.0336774856623 0)
(-0.26221205106 0.0359031326598 0)
(-0.256722775507 0.0381538414827 0)
(-0.250934499096 0.040435040097 0)
(-0.244840083149 0.0427498790533 0)
(-0.238431366547 0.0450985490995 0)
(-0.231699888225 0.047477668799 0)
(-0.224637828461 0.0498798000448 0)
(-0.217239152254 0.0522931802771 0)
(-0.209500856497 0.0547018119409 0)
(-0.201424277053 0.0570858602465 0)
(-0.193016304353 0.059422563982 0)
(-0.184290422939 0.0616874991859 0)
(-0.175267543363 0.0638562224026 0)
(-0.165976237734 0.0659065635952 0)
(-0.156453005346 0.0678204058572 0)
(-0.146741437134 0.0695869820655 0)
(-0.136891262136 0.0712047916842 0)
(-0.126958473092 0.0726831915147 0)
(-0.116999261593 0.0740493866148 0)
(-0.107073640897 0.0753418369073 0)
(-0.0972388257175 0.0766181373795 0)
(-0.0875490879807 0.0779639417929 0)
(-0.0780467126686 0.0794756403259 0)
(-0.0687579214016 0.0812596818853 0)
(-0.0597088450452 0.0834529782821 0)
(-0.0508787421863 0.0861921509602 0)
(-0.0422301112076 0.0895890284055 0)
(-0.0336944543809 0.0936626917211 0)
(-0.0248375296871 0.0981846027368 0)
(-0.0158037865699 0.101787728011 0)
(-0.00552295589281 0.0970314404248 0)
(-0.0172490295125 -0.101705921221 0)
(-0.0382720039586 -0.121095454212 0)
(-0.0626104669358 -0.134207403836 0)
(-0.0835910493041 -0.143603400392 0)
(-0.102792135765 -0.149048842412 0)
(-0.120119106358 -0.150978828748 0)
(-0.135817065782 -0.149899818002 0)
(-0.150092686121 -0.146427086688 0)
(-0.163135342983 -0.141158446025 0)
(-0.175113418663 -0.13463187165 0)
(-0.186168913406 -0.127301044798 0)
(-0.196416549759 -0.119527671725 0)
(-0.205944870196 -0.111585960497 0)
(-0.214819493106 -0.103674000377 0)
(-0.223087687148 -0.095928017142 0)
(-0.230783238841 -0.0884365178293 0)
(-0.23793083811 -0.0812526522748 0)
(-0.244549539536 -0.0744041585396 0)
(-0.250655193689 -0.0679009346941 0)
(-0.256261963653 -0.0617406071875 0)
(-0.26138314366 -0.0559125524775 0)
(-0.266031509483 -0.05040078611 0)
(-0.270219397338 -0.0451860432374 0)
(-0.273958648278 -0.0402472855419 0)
(-0.277260512301 -0.0355627964379 0)
(-0.280135564337 -0.0311109719135 0)
(-0.282593659346 -0.0268708839374 0)
(-0.284643921091 -0.0228226782824 0)
(-0.286294719971 -0.0189478580991 0)
(-0.28755365568 -0.0152294645362 0)
(-0.288427764211 -0.0116521309457 0)
(-0.288924461153 -0.00820205200558 0)
(-0.289051981436 -0.00486715502958 0)
(-0.288814494665 -0.00163783936867 0)
(-0.288202793317 0.00149246332897 0)
(-0.287260325767 0.00452662484946 0)
(-0.285966943325 0.00747155983061 0)
(-0.284335462073 0.010336872519 0)
(-0.28237221001 0.0131302152894 0)
(-0.280084411715 0.0158585323067 0)
(-0.277479584476 0.0185284779478 0)
(-0.274565437232 0.0211467637692 0)
(-0.271349680152 0.0237204284413 0)
(-0.267839787829 0.0262570473815 0)
(-0.264042713888 0.0287648752322 1.00199408114e-28)
(-0.259964561539 0.0312529048599 -1.00740900518e-28)
(-0.255610221213 0.0337308210442 0)
(-0.250982996426 0.0362088243576 0)
(-0.246084251017 0.0386973033838 0)
(-0.240913123005 0.0412063409549 0)
(-0.235466361184 0.0437450535808 0)
(-0.22973834435 0.0463207862118 0)
(-0.223721338692 0.0489382095428 0)
(-0.217406038387 0.0515983833347 0)
(-0.21078238129 0.0542979065032 0)
(-0.203840645224 0.0570282048426 0)
(-0.196572880062 0.0597750160189 0)
(-0.188974433128 0.0625184745838 0)
(-0.181045640808 0.0652333894491 0)
(-0.172793395507 0.067890380987 0)
(-0.164232434851 0.0704574029456 0)
(-0.155386728636 0.0729014356907 0)
(-0.146289397779 0.0751920126942 0)
(-0.136983896744 0.0773021252423 0)
(-0.127522629195 0.079213487366 0)
(-0.117965210213 0.0809187199725 0)
(-0.108383013155 0.0824197179027 0)
(-0.0988427627248 0.0837446398562 0)
(-0.0894264150309 0.0849302937574 0)
(-0.0802018464984 0.0860312987529 0)
(-0.0712464924428 0.0871454179002 0)
(-0.0626302294446 0.0883857642674 0)
(-0.054380158563 0.0898615396418 0)
(-0.0465560857895 0.0917341264995 0)
(-0.0391418322137 0.0941714005635 0)
(-0.0321203948992 0.0973284056668 0)
(-0.0254692344188 0.101300631 0)
(-0.0186788614307 0.105982970778 0)
(-0.0122312585637 0.11038561308 0)
(-0.00410354152314 0.106508941064 0)
(-0.0158278793314 -0.127420172684 0)
(-0.0361214594986 -0.145107587619 0)
(-0.0595220178341 -0.156102805612 0)
(-0.0794389006437 -0.163383644434 0)
(-0.0976888527129 -0.166854663522 0)
(-0.114035833283 -0.16701200274 0)
(-0.128757049001 -0.164383573559 0)
(-0.142061058795 -0.159576599542 0)
(-0.154154620792 -0.153167532113 0)
(-0.165219909238 -0.145666512199 0)
(-0.175408145268 -0.137496208209 0)
(-0.184838216834 -0.128987875416 0)
(-0.193599135978 -0.1203886269 0)
(-0.201755082428 -0.111874555465 0)
(-0.209351392865 -0.103565500206 0)
(-0.216420224617 -0.0955387255897 0)
(-0.22298516721 -0.0878402561179 0)
(-0.2290645664 -0.0804936349705 0)
(-0.234673668088 -0.0735064250537 0)
(-0.239825850334 -0.0668749546591 0)
(-0.244533240562 -0.0605877865996 0)
(-0.248806970656 -0.0546282851019 0)
(-0.252657253221 -0.048976541693 0)
(-0.25609339078 -0.0436108333143 0)
(-0.259123782662 -0.0385087263475 0)
(-0.261755958265 -0.0336479006358 0)
(-0.263996640788 -0.029006747222 0)
(-0.265851818821 -0.0245647936592 0)
(-0.267326798403 -0.0203030171016 0)
(-0.268426272348 -0.0162040434958 0)
(-0.269154633575 -0.0122521446331 0)
(-0.269516790696 -0.00843307739851 0)
(-0.269518065506 -0.00473445681465 9.68511317859e-29)
(-0.269159097484 -0.00114740066241 -9.8248620449e-29)
(-0.268428040752 0.00233316397504 0)
(-0.267373083574 0.0057109688024 0)
(-0.265966694824 0.00899487102563 0)
(-0.264222595647 0.0121932173388 0)
(-0.262146427234 0.015312849643 0)
(-0.259745549516 0.0183600354294 0)
(-0.257028097124 0.0213409287482 0)
(-0.254002823952 0.024261943265 0)
(-0.250678863736 0.0271300642007 0)
(-0.247065446832 0.0299531074551 0)
(-0.243171554766 0.0327399140331 0)
(-0.239005508272 0.0355004564108 0)
(-0.234574494288 0.0382458244485 0)
(-0.229884052885 0.0409880532875 0)
(-0.224937563082 0.0437397562735 0)
(-0.219735784476 0.0465135363765 0)
(-0.214276532044 0.0493211631535 0)
(-0.208554571349 0.0521725344803 0)
(-0.202561805043 0.0550744967261 0)
(-0.196287845495 0.058029560385 0)
(-0.1897209336 0.0610347416471 0)
(-0.182849136888 0.0640806018013 0)
(-0.175662225618 0.0671502102092 0)
(-0.168153445142 0.070219445764 0)
(-0.160321735469 0.0732568537878 0)
(-0.15217376913 0.0762251671916 0)
(-0.143725234516 0.079083376861 0)
(-0.135003595646 0.0817875946518 0)
(-0.126046349074 0.0842977408176 0)
(-0.116904837518 0.0865751735166 0)
(-0.107641177077 0.0885916861448 0)
(-0.0983235583636 0.0903333810052 0)
(-0.0890455477342 0.0917892906588 0)
(-0.0798741988633 0.0929884355447 0)
(-0.0709336792428 0.0939681863691 0)
(-0.0622891841181 0.0947748886069 0)
(-0.0540400235672 0.0955123883403 0)
(-0.0463104497296 0.0963236090696 0)
(-0.0391079430872 0.0973149860623 0)
(-0.0325404571769 0.0986712009413 0)
(-0.0265915416196 0.100594716032 0)
(-0.0212700398932 0.103282569001 0)
(-0.0165915524698 0.106909531478 0)
(-0.0119698597807 0.11145108992 0)
(-0.00825703428157 0.116379810506 0)
(-0.00257233489416 0.113460697045 0)
(-0.0144275911754 -0.151414392316 0)
(-0.0336837891389 -0.167776794609 0)
(-0.0558454928111 -0.176834157007 0)
(-0.074550912495 -0.182099297713 0)
(-0.0917640166005 -0.183658415492 0)
(-0.107119155911 -0.182085961222 0)
(-0.12091687663 -0.177942456956 0)
(-0.133349134595 -0.171836845987 0)
(-0.144621884798 -0.164327081733 0)
(-0.154914399518 -0.155894399737 0)
(-0.164374724284 -0.146928191761 0)
(-0.173118100687 -0.137727472922 0)
(-0.181230331921 -0.12851157835 0)
(-0.188773518316 -0.119434874595 0)
(-0.195792260428 -0.110601554832 0)
(-0.202319087307 -0.1020783798 0)
(-0.208378572557 -0.0939046912944 0)
(-0.21399011387 -0.0860998894778 0)
(-0.219169628818 -0.078668911793 0)
(-0.223930500274 -0.0716062733886 0)
(-0.228284071661 -0.064899110942 0)
(-0.232239914022 -0.0585295303863 0)
(-0.23580600375 -0.0524764438586 0)
(-0.238988881134 -0.0467170088666 0)
(-0.241793822783 -0.0412277449133 0)
(-0.244225035669 -0.0359853777849 0)
(-0.246285854434 -0.0309674499186 0)
(-0.24797889619 -0.0261527487528 0)
(-0.249306185066 -0.0215216376172 0)
(-0.250269354811 -0.0170562794656 0)
(-0.250870185467 -0.0127405826284 0)
(-0.251111210039 -0.00855978150987 0)
(-0.250994238369 -0.00450076284694 0)
(-0.250514728974 -0.000555477307879 0)
(-0.249659268675 0.00327613900367 0)
(-0.248482101119 0.00699825959385 0)
(-0.24694929002 0.0106244107716 0)
(-0.245074413489 0.0141597867584 0)
(-0.24286259228 0.0176096328783 0)
(-0.240321356183 0.0209790076583 0)
(-0.237459469082 0.024273129847 0)
(-0.234286745622 0.0274977195275 0)
(-0.230813803931 0.0306593410648 0)
(-0.227051769369 0.033765722273 0)
(-0.223011895504 0.036826024414 0)
(-0.21870508501 0.0398510270286 0)
(-0.214141307038 0.0428531817643 0)
(-0.209328927512 0.0458464776069 0)
(-0.204273997338 0.0488460569209 0)
(-0.198979567798 0.0518675388329 0)
(-0.193445135718 0.0549260165425 0)
(-0.1876663674 0.0580347168088 0)
(-0.181635148371 0.0612035035349 0)
(-0.175340181331 0.0644371065163 0)
(-0.168768088284 0.0677335221618 0)
(-0.16190442569 0.0710830094103 0)
(-0.154736428966 0.0744657232112 0)
(-0.147254775833 0.0778530550676 0)
(-0.139456624782 0.0812062900458 0)
(-0.131348397382 0.0844787163258 0)
(-0.12294602308 0.0876193465266 0)
(-0.114281588452 0.0905700979783 0)
(-0.105395613089 0.0932804817749 0)
(-0.0963489605241 0.0956967606297 0)
(-0.0872144879556 0.097777574444 0)
(-0.0780631006653 0.099502876998 0)
(-0.0690296834306 0.100844434734 0)
(-0.0601478562422 0.101827183022 0)