/*--------------------------------*- C++ -*----------------------------------*\
| =========                 |                                                 |
| \\      /  F ield         | OpenFOAM: The Open Source CFD Toolbox           |
|  \\    /   O peration     | Version:  v1806                                 |
|   \\  /    A nd           | Web:      www.OpenFOAM.com                      |
|    \\/     M anipulation  |                                                 |
\*---------------------------------------------------------------------------*/
FoamFile
{
    version     2.0;
    format      ascii;
    class       volVectorField;
    location    "600";
    object      U;
}
// * * * * * * * * * * * * * * * * * * * * * * * * * * * * * * * * * * * * * //

dimensions      [0 1 -1 0 0 0 0];


internalField   nonuniform List<vector> 
6400
(
(0.00915307004959 0.0191991841793 0)
(0.022881513482 0.0128299874073 0)
(0.029693039941 0.00970504706368 0)
(0.0282607195566 0.00775063039811 0)
(0.0229552425935 -9.9116081846e-05 0)
(-0.00903207254771 -0.0151478136016 0)
(-0.0359666004703 -0.0158551965909 0)
(-0.0602267551095 -0.0149912343896 0)
(-0.0851884216762 -0.0144197759321 0)
(-0.10964426603 -0.0138177655491 0)
(-0.133328347504 -0.0131385516966 0)
(-0.156009680956 -0.0124011966813 0)
(-0.17753047628 -0.0116317780271 0)
(-0.197793262234 -0.0108535747163 0)
(-0.216749751043 -0.0100849021012 0)
(-0.234389829065 -0.0093391130549 0)
(-0.250731689824 -0.00862522152771 0)
(-0.265813420986 -0.00794869208169 0)
(-0.279686130121 -0.0073122231283 0)
(-0.292408540907 -0.00671645146761 0)
(-0.304042903926 -0.00616054904719 0)
(-0.3146520247 -0.00564270580825 0)
(-0.324297202157 -0.00516050499041 0)
(-0.333036882215 -0.0047112040012 0)
(-0.340925854352 -0.00429193629272 0)
(-0.348014846128 -0.00389984975762 0)
(-0.35435040029 -0.00353219536712 0)
(-0.359974941763 -0.00318637750086 0)
(-0.364926962307 -0.00285997413093 0)
(-0.36924126517 -0.00255073204819 0)
(-0.372949235219 -0.00225654201307 0)
(-0.376079129263 -0.00197540100489 0)
(-0.378656348574 -0.00170534194254 0)
(-0.380703543475 -0.00144423128314 0)
(-0.382240276626 -0.00118936103222 0)
(-0.383282266317 -0.000937206353878 0)
(-0.383841232793 -0.000684185963941 0)
(-0.383928631897 -0.000428718108598 0)
(-0.383552433505 -0.000172106661791 0)
(-0.382713679609 8.11332429954e-05 0)
(-0.38142695379 0.000328026488156 0)
(-0.379704576284 0.000568425996514 0)
(-0.377558208471 0.000802974823179 0)
(-0.374998042874 0.00103258188604 0)
(-0.372032626333 0.00125823333593 0)
(-0.368668813457 0.00148092566868 0)
(-0.364911779437 0.00170163692073 0)
(-0.360765068064 0.00192130714721 0)
(-0.356230674353 0.00214081843849 0)
(-0.351309168892 0.00236097122231 0)
(-0.345999872547 0.00258245705191 0)
(-0.340301088466 0.00280582918632 0)
(-0.334210394449 0.00303147389345 0)
(-0.327724992999 0.00325958577416 0)
(-0.320842109316 0.00349015160189 0)
(-0.313559419325 0.00372294706678 0)
(-0.305875481321 0.00395755149871 0)
(-0.297790136356 0.00419338490731 0)
(-0.289304835029 0.00442977172397 0)
(-0.280422842179 0.004666034362 0)
(-0.271149266565 0.00490161936866 0)
(-0.261490860294 0.00513625739025 0)
(-0.251455532948 0.00537015753204 0)
(-0.241051528115 0.0056042350752 0)
(-0.230286214443 0.00584037065125 0)
(-0.219164447543 0.00608169827791 0)
(-0.207686469053 0.00633291934186 0)
(-0.195845333975 0.00660062899679 0)
(-0.183623879035 0.00689363155072 0)
(-0.170991223075 0.00722321228917 0)
(-0.15789879688 0.00760327670065 0)
(-0.144276302399 0.00805024198962 0)
(-0.130029293617 0.0085822966046 0)
(-0.115040584426 0.00921665355997 0)
(-0.0991708791943 0.00996267013316 0)
(-0.0822446719509 0.0108123868876 0)
(-0.0640625725125 0.0117355339423 0)
(-0.0447077841312 0.0126403272981 0)
(-0.0255470728787 0.0130373017853 0)
(-0.010116473576 0.0107040550863 0)
(0.000230579413606 0.0284558979261 0)
(0.0120094402214 0.0154500430157 0)
(0.0074212689502 -0.00131306484455 0)
(-0.0217230710404 -0.0216559946814 0)
(-0.0403527415669 -0.0299931717552 0)
(-0.0631259265503 -0.0356455121488 0)
(-0.0868568673309 -0.0371194336249 0)
(-0.111361975971 -0.0372067589085 0)
(-0.136217282841 -0.0367546383048 0)
(-0.160537539032 -0.0358111560814 0)
(-0.183968078341 -0.0344726015262 0)
(-0.206260991734 -0.0328445817495 0)
(-0.227263127783 -0.0310238522159 0)
(-0.246888588338 -0.0290923363042 0)
(-0.265103071338 -0.0271156662939 0)
(-0.281910699057 -0.0251439731998 0)
(-0.297343055231 -0.023213684812 0)
(-0.311450223129 -0.0213497229478 0)
(-0.324293691531 -0.0195677514117 0)
(-0.335940935218 -0.0178762719026 0)
(-0.34646143138 -0.0162784595152 0)
(-0.355923856868 -0.0147736943978 0)
(-0.364394220305 -0.0133587893335 0)
(-0.371934708629 -0.0120289390354 0)
(-0.378603062031 -0.0107784296458 0)
(-0.384452325476 -0.00960115086078 0)
(-0.389530859143 -0.00849095105461 0)
(-0.39388251862 -0.00744186966813 0)
(-0.397546935946 -0.00644827465114 0)
(-0.400559846277 -0.00550492622643 0)
(-0.402953421988 -0.00460698989968 0)
(-0.404756635898 -0.00375001641844 0)
(-0.405995714706 -0.00292983485587 0)
(-0.406694581636 -0.00214213221285 0)
(-0.406874598031 -0.00138171830091 0)
(-0.406552742837 -0.000643126954252 0)
(-0.405739291843 7.53775035524e-05 0)
(-0.404468534585 0.000771786981651 0)
(-0.402767398741 0.0014468854247 0)
(-0.400664590282 0.00210234123763 0)
(-0.398172076178 0.00273857044331 0)
(-0.395300084992 0.00335731273923 0)
(-0.39205642412 0.00396073101653 0)
(-0.388447413636 0.00455114934803 0)
(-0.384478081872 0.00513093799457 0)
(-0.380152209791 0.00570245992471 0)
(-0.375472333086 0.00626803286074 0)
(-0.370439749156 0.0068298874267 0)
(-0.365054551354 0.00739011338986 0)
(-0.359315705188 0.00795059194862 0)
(-0.353221177708 0.00851291566077 0)
(-0.346768128214 0.00907830055654 0)
(-0.339953164306 0.00964749750625 0)
(-0.332772661758 0.0102207122352 0)
(-0.325223139763 0.0107975451212 0)
(-0.317301675121 0.0113769630679 0)
(-0.309006330504 0.0119573159813 0)
(-0.300336563546 0.0125364097879 0)
(-0.2912935762 0.0131116462624 0)
(-0.281880557913 0.013680237616 0)
(-0.272102772309 0.0142395011827 0)
(-0.261967435448 0.0147872361949 0)
(-0.251483335058 0.0153221812531 0)
(-0.240660143953 0.0158445483496 0)
(-0.229507388819 0.0163566238531 0)
(-0.218033042679 0.0168634274256 0)
(-0.206241715543 0.017373418629 0)
(-0.194132442452 0.0178992190229 0)
(-0.18169610433 0.0184582748193 0)
(-0.168912470856 0.0190734277326 0)
(-0.155746885266 0.0197731670761 0)
(-0.142146912482 0.0205912697322 0)
(-0.128039876479 0.0215651335369 0)
(-0.113332583609 0.0227300722226 0)
(-0.097911984819 0.0241049491155 0)
(-0.0816409140801 0.0256697562718 0)
(-0.0643614309789 0.0273426838827 0)
(-0.0460250588594 0.0288912525141 0)
(-0.0273225247755 0.029423763106 0)
(-0.0111061435671 0.026013270101 0)
(-0.00743831417049 0.0269754317623 0)
(-0.0151673936125 -0.00487140562979 0)
(-0.0347284205623 -0.0262733477346 -8.15345210575e-29)
(-0.0547951530017 -0.0407685971298 5.12787796184e-29)
(-0.0753304771123 -0.0511490429085 3.90389568577e-29)
(-0.0967143598335 -0.058178154156 -3.19575424431e-29)
(-0.118626142748 -0.0611062815696 2.73599251151e-29)
(-0.141062476772 -0.0617106013941 -2.43385936996e-29)
(-0.163424898591 -0.0609619404674 0)
(-0.185132379614 -0.0592336294544 0)
(-0.205860117908 -0.0568047399202 0)
(-0.225401563497 -0.0538967358156 0)
(-0.243647059961 -0.0506894452018 0)
(-0.260552663492 -0.0473260988792 0)
(-0.276120695854 -0.043917099048 0)
(-0.290384845975 -0.0405441339717 0)
(-0.303398851205 -0.0372646502582 0)
(-0.315227977264 -0.0341163750676 0)
(-0.325942797169 -0.0311215802019 0)
(-0.335614829923 -0.0282908743072 0)
(-0.344313637293 -0.0256264139165 0)
(-0.352105021897 -0.0231245100365 0)
(-0.359050025675 -0.0207776664133 0)
(-0.365204488501 -0.0185761190947 0)
(-0.370618980364 -0.0165089606987 0)
(-0.375338973536 -0.0145649326178 0)
(-0.379405157251 -0.0127329600358 0)
(-0.382853829669 -0.0110024915129 0)
(-0.385717318728 -0.00936369315056 0)
(-0.388024388158 -0.00780754268858 -6.7850406361e-29)
(-0.389800619114 -0.00632586292523 6.77950852082e-29)
(-0.391068811561 -0.00491129900447 0)
(-0.391849676157 -0.00355714451621 0)
(-0.392162579881 -0.00225686203001 0)
(-0.392024158797 -0.00100375237493 0)
(-0.391442679664 0.000206950926916 0)
(-0.390446602892 0.0013717327751 0)
(-0.389054973024 0.00248916768749 0)
(-0.387271174416 0.00356640451071 0)
(-0.385105412919 0.00460993969291 0)
(-0.382566268843 0.00562512869402 0)
(-0.379661876232 0.00661588133242 0)
(-0.376399283278 0.00758576315054 0)
(-0.372784421099 0.00853826085741 0)
(-0.368822075649 0.00947686177799 0)
(-0.364515855117 0.0104050599435 0)
(-0.359868157146 0.0113263240715 0)
(-0.354880151113 0.0122440354218 0)
(-0.349551790977 0.0131613969114 0)
(-0.343881873326 0.0140813155167 0)
(-0.337868153884 0.0150062621787 0)
(-0.331507533191 0.0159381173592 0)
(-0.324796318181 0.0168780139508 0)
(-0.317730560484 0.0178261934471 0)
(-0.310306464735 0.0187818939639 0)
(-0.30252085137 0.0197432910524 0)
(-0.29437164898 0.0207075122182 0)
(-0.285858382011 0.0216707452831 0)
(-0.276982611399 0.0226284572926 0)
(-0.267748279921 0.0235757360882 0)
(-0.258161909943 0.024507761807 0)
(-0.248232600059 0.0254204094554 0)
(-0.237971770146 0.0263109746997 0)
(-0.227392608025 0.0271790138066 0)
(-0.216509183837 0.0280272714077 0)
(-0.205335212768 0.0288626728356 0)
(-0.193882444682 0.0296973544956 0)
(-0.182158660535 0.0305497061131 0)
(-0.170165380717 0.0314451954791 0)
(-0.157895242112 0.0324171010303 0)
(-0.145329011711 0.0335067426437 0)
(-0.132432586005 0.0347626038776 0)
(-0.119154142201 0.0362377568766 0)
(-0.105421547979 0.0379826606473 0)
(-0.0911411291727 0.0400275996448 0)
(-0.0761976511975 0.0423500027966 0)
(-0.0604448402353 0.0448210494127 0)
(-0.0437180153335 0.047058368823 0)
(-0.0263524792549 0.0478295141943 0)
(-0.010208008098 0.0438635730554 0)
(-0.0184607859333 0.0123675353863 0)
(-0.0346339646703 -0.0232789726611 0)
(-0.0543732566992 -0.0444027676024 0)
(-0.074943913137 -0.0605213779087 0)
(-0.0954827521533 -0.0718557199585 0)
(-0.115990753123 -0.0791652985611 0)
(-0.136389963324 -0.0824775193881 0)
(-0.156614084168 -0.0830236550316 0)
(-0.176314703427 -0.0816909247211 0)
(-0.195192935733 -0.0790288263684 0)
(-0.213057394568 -0.0754552188335 0)
(-0.229794506028 -0.0712912831577 0)
(-0.245358368749 -0.0667870557446 0)
(-0.259749634308 -0.06213405907 0)
(-0.272999611332 -0.0574745515059 0)
(-0.285157794062 -0.0529097247463 0)
(-0.296282869162 -0.0485074315225 0)
(-0.306436563029 -0.044309345205 0)
(-0.315679705395 -0.0403373194233 0)
(-0.324069921318 -0.0365987846211 0)
(-0.331660452112 -0.0330911341697 0)
(-0.338499712257 -0.0298051516718 0)
(-0.344631294357 -0.0267275938995 0)
(-0.35009422492 -0.0238430711394 0)
(-0.354923342483 -0.0211353688776 0)
(-0.359149722581 -0.0185883413854 0)
(-0.362801107351 -0.0161864851462 0)
(-0.365902317484 -0.0139152767218 0)
(-0.368475626823 -0.0117613427747 0)
(-0.370541077636 -0.0097125271686 0)
(-0.372116758452 -0.00775789889738 0)
(-0.37321920205 -0.00588764468676 0)
(-0.37386416737 -0.00409268251522 0)
(-0.374067125846 -0.00236422424448 0)
(-0.37384016284 -0.000694656758176 0)
(-0.373183959556 0.000919568856498 0)
(-0.372143356903 0.00247654644457 0)
(-0.370709673417 0.0039799762367 0)
(-0.368896641754 0.00543640224159 0)
(-0.366713492477 0.00685064105388 0)
(-0.364168988273 0.00822768300541 0)
(-0.361271077139 0.00957227074823 0)
(-0.358026754452 0.0108890457317 0)
(-0.354442001811 0.0121826444342 0)
(-0.35052172258 0.0134577484768 0)
(-0.346269671576 0.0147190878742 8.15742886915e-29)
(-0.341688387117 0.0159714001018 -8.23273212572e-29)
(-0.336779139434 0.0172193450524 0)
(-0.331541911502 0.0184673758816 0)
(-0.325975429163 0.0197195678487 0)
(-0.320077257075 0.0209794111204 0)
(-0.31384397526 0.0222495785075 0)
(-0.307271447109 0.0235316850241 0)
(-0.300355183349 0.024826061953 0)
(-0.293090797896 0.0261315729207 0)
(-0.285474541205 0.0274455025443 0)
(-0.277503885705 0.0287635488308 0)
(-0.269178127035 0.0300799486316 1.20454961201e-28)
(-0.260498954614 0.031387761711 -1.23464423892e-28)
(-0.25147093935 0.0326793295236 0)
(-0.242101882371 0.0339469189074 0)
(-0.232402964787 0.0351835550295 0)
(-0.222388648286 0.0363840219798 0)
(-0.212076273533 0.0375460292567 0)
(-0.201485323733 0.0386714888209 0)
(-0.190636346309 0.0397678815768 0)
(-0.179549547063 0.0408496179312 0)
(-0.168242893664 0.0419395817017 0)
(-0.156730074132 0.0430700779051 0)
(-0.145018198247 0.0442839513724 0)
(-0.133104903809 0.0456352431076 0)
(-0.120975516419 0.0471880730171 0)
(-0.108600143565 0.0490140882312 0)
(-0.0959294537136 0.05118590564 0)
(-0.0828905341986 0.0537600334464 0)
(-0.0693868711832 0.0567396458603 0)
(-0.0552774134951 0.0600037846645 0)
(-0.0402789466038 0.0631506127169 0)
(-0.0246534463641 0.0647311240898 0)
(-0.00909349106138 0.0609460240502 0)
(-0.0247344738007 -0.0188488516575 0)
(-0.0415416361457 -0.044284394086 0)
(-0.0636918279157 -0.0651516826328 0)
(-0.0851394335376 -0.0811439020491 0)
(-0.105687117377 -0.0921988881859 0)
(-0.125408812951 -0.0989309788176 0)
(-0.144388527504 -0.101817404204 0)
(-0.162653469832 -0.101817027362 0)
(-0.180077374093 -0.0997143584513 0)
(-0.19655816323 -0.0961135169083 0)
(-0.212035865978 -0.0915002419433 0)
(-0.226488838208 -0.0862552510423 0)
(-0.239928634762 -0.0806720710774 0)
(-0.252388248711 -0.07497041037 0)
(-0.263912502506 -0.0693084927601 0)
(-0.274550690397 -0.0637946394949 0)
(-0.284351847123 -0.0584979841175 0)
(-0.293362133212 -0.0534579852191 0)
(-0.301623712889 -0.0486924818905 0)
(-0.3091745478 -0.0442042108498 0)
(-0.316048669108 -0.03998586478 0)
(-0.322276639656 -0.0360238751991 0)
(-0.327886043043 -0.0323011474382 0)
(-0.332901919986 -0.0287989751555 0)
(-0.337347130447 -0.0254983363528 0)
(-0.341242644602 -0.0223807366965 0)
(-0.344607781886 -0.0194287278134 0)
(-0.347460412467 -0.0166261935627 0)
(-0.349817110604 -0.0139584772987 0)
(-0.351693269572 -0.0114124202134 0)
(-0.353103225321 -0.00897634999999 -7.29300116304e-29)
(-0.354060752035 -0.00663990190309 7.32041118298e-29)
(-0.354579841212 -0.0043934370598 0)
(-0.354673937848 -0.00222772886535 0)
(-0.354350701174 -0.000136495641735 0)
(-0.35361368482 0.00187918806277 0)
(-0.352506650691 0.00382237517412 0)
(-0.351019657174 0.00570321417168 0)
(-0.349166346286 0.00752747136224 0)
(-0.346955216458 0.00930097466475 0)
(-0.344394741122 0.0110293702376 0)
(-0.341492791036 0.0127181651404 0)
(-0.338256491394 0.0143728544634 0)
(-0.334692093369 0.015999020129 0)
(-0.330804853123 0.0176023850477 0)
(-0.326598909908 0.0191888161844 0)
(-0.322077168593 0.0207642726448 0)
(-0.317241199215 0.0223346950342 0)
(-0.312091170698 0.0239058337084 0)
(-0.306625838706 0.0254830170451 0)
(-0.300842608757 0.0270708661562 0)
(-0.294737695006 0.0286729694438 0)
(-0.288306391596 0.0302915387387 0)
(-0.281543466344 0.031927077655 0)
(-0.274443676349 0.0335780995656 0)
(-0.267002392253 0.0352409374416 0)
(-0.259216304444 0.0369096888976 0)
(-0.251084171698 0.0385763355317 0)
(-0.242607557979 0.040231074459 0)
(-0.233791497566 0.0418628813771 0)
(-0.224645030227 0.0434603108416 0)
(-0.215181526288 0.0450125623357 0)
(-0.205418760294 0.046510734378 0)
(-0.195378658806 0.0479493246019 0)
(-0.185086698868 0.0493278152487 0)
(-0.174570903666 0.0506524607323 0)
(-0.163860720312 0.0519377344369 0)
(-0.152984962465 0.0532087344112 0)
(-0.141969965275 0.054501797961 0)
(-0.13083767938 0.0558660204952 0)
(-0.119602650331 0.0573648908911 0)
(-0.108268957355 0.0590745673802 0)
(-0.0968278112307 0.0610818075065 0)
(-0.0852531810147 0.0634798265752 0)
(-0.0734938923441 0.0663538563713 0)
(-0.0614732236972 0.0697441202443 0)
(-0.0490798651232 0.0735647147256 0)
(-0.0358919168246 0.0774943379396 0)
(-0.0223771569837 0.0800030561078 0)
(-0.00783080537078 0.0766876790778 0)
(-0.0221389134885 -0.0435751332858 0)
(-0.0422746143729 -0.068633620999 0)
(-0.066739663021 -0.0877063455758 0)
(-0.0887253440115 -0.102278427849 0)
(-0.109118607938 -0.112115579948 0)
(-0.128082835361 -0.117711255234 0)
(-0.145824547877 -0.119635455642 0)
(-0.162483396115 -0.118705693843 0)
(-0.178098723084 -0.115646726821 0)
(-0.192705376846 -0.111069872431 0)
(-0.20634268433 -0.105481396041 0)
(-0.219056922662 -0.0992835073844 0)
(-0.230899164223 -0.0927847322526 0)
(-0.241920346797 -0.0862122852383 0)
(-0.252167794529 -0.0797259507562 0)
(-0.261683284722 -0.0734318818046 0)
(-0.270502653892 -0.0673952675462 0)
(-0.278656388785 -0.0616512041834 0)
(-0.286170666945 -0.0562135132256 0)
(-0.29306844956 -0.0510815669926 0)
(-0.299370405194 -0.0462453711389 0)
(-0.305095584445 -0.0416892308948 0)
(-0.310261855448 -0.0373943264472 0)
(-0.314886150057 -0.0333404803087 0)
(-0.318984583734 -0.0295073422705 0)
(-0.322572505087 -0.0258751614164 0)
(-0.325664521299 -0.0224252680163 0)
(-0.328274522385 -0.0191403516773 0)
(-0.330415683151 -0.0160046011185 0)
(-0.332100432739 -0.0130037625043 0)
(-0.333340567754 -0.0101251414772 0)
(-0.334147982798 -0.0073574426069 0)
(-0.334535434843 -0.00469029755125 0)
(-0.334513610606 -0.00211424804287 0)
(-0.334082706543 0.000376513502315 0)
(-0.33327732817 0.00277952832743 0)
(-0.332092584313 0.00509931621616 0)
(-0.330540815279 0.00734724909207 0)
(-0.32863237837 0.00952923659997 0)
(-0.326376515583 0.0116515339107 0)
(-0.323781954886 0.0137203017556 0)
(-0.320856905294 0.015741703351 0)
(-0.317608967282 0.0177220187669 0)
(-0.314044995464 0.0196677460387 0)
(-0.31017093722 0.0215856617629 0)
(-0.305991657413 0.0234828267249 0)
(-0.301510760444 0.0253665257169 0)
(-0.296730425263 0.0272441323823 0)
(-0.291651274059 0.0291228926162 0)
(-0.286272299599 0.0310096250141 0)
(-0.280590878859 0.0329103442445 0)
(-0.274602901306 0.0348298223047 0)
(-0.268303037634 0.0367711142705 0)
(-0.261685166288 0.0387350889437 0)
(-0.254742962106 0.0407200141581 0)
(-0.247470636015 0.0427212530726 0)
(-0.23986379467 0.0447311330694 0)
(-0.231920378199 0.046739033329 0)
(-0.223641609452 0.0487317497284 0)
(-0.215032873469 0.0506941686676 0)
(-0.206104492674 0.0526102043217 0)
(-0.196872243791 0.0544641597429 0)
(-0.187357639964 0.0562422019326 0)
(-0.177587805285 0.0579343127491 0)
(-0.167595067532 0.0595360662866 0)
(-0.1574157228 0.0610512486705 0)
(-0.147089664668 0.0624926036157 0)
(-0.136657425554 0.0638863686384 0)
(-0.126158671118 0.0652715133469 0)
(-0.115630402674 0.0667013946598 0)
(-0.105104167665 0.0682478961399 0)
(-0.0946017160023 0.0699979406225 0)
(-0.084132560082 0.072051089561 0)
(-0.0736924404316 0.0745195017838 0)
(-0.063250275426 0.0775170086645 0)
(-0.0527427512547 0.0811273396879 0)
(-0.042128922423 0.0853085420607 0)
(-0.0307829982488 0.0898609228517 0)
(-0.0196626681668 0.0933156084782 0)
(-0.00646335504313 0.090699405872 0)
(-0.0198495644222 -0.0721045140936 0)
(-0.0410713819638 -0.0944665545293 0)
(-0.0663391363739 -0.110984258275 0)
(-0.0881926563365 -0.123461845431 0)
(-0.108160082572 -0.131511803325 0)
(-0.126335322519 -0.135565827678 0)
(-0.142998391263 -0.136182252836 0)
(-0.158359824814 -0.134088786458 0)
(-0.172564591933 -0.129964200383 0)
(-0.185736013727 -0.12440372757 0)
(-0.197978508652 -0.117905277629 1.11670134623e-28)
(-0.209380847757 -0.110864815442 -1.10148486053e-28)
(-0.220016666485 -0.103583364949 0)
(-0.229944714548 -0.0962793000227 0)
(-0.239210338416 -0.0891032693515 0)
(-0.247847800604 -0.0821531300303 0)
(-0.25588300902 -0.0754873290123 0)
(-0.263336116548 -0.0691359823202 0)
(-0.270223657023 -0.0631095271333 0)
(-0.276560090445 -0.0574051917572 0)
(-0.282358788223 -0.052011685599 0)
(-0.287632572761 -0.0469125275851 0)
(-0.292393949468 -0.0420883756308 0)
(-0.296655154527 -0.03751864084 0)
(-0.300428114226 -0.0331825942602 0)
(-0.303724381236 -0.0290601120764 0)
(-0.306555089462 -0.0251321605699 0)
(-0.308930938064 -0.0213810940825 0)
(-0.310862168011 -0.0177908228458 0)
(-0.312358513904 -0.0143468848385 0)
(-0.313429373323 -0.0110364189337 0)
(-0.314084705401 -0.00784801878009 8.05378151634e-29)
(-0.314335647924 -0.00477159287651 -8.12433369936e-29)
(-0.314190153005 -0.00179875073009 0)
(-0.313643484854 0.0010759180432 0)
(-0.312736811558 0.00385339812094 0)
(-0.311458492962 0.00653907115189 0)
(-0.309822460522 0.0091422846943 0)
(-0.30783772821 0.0116702594516 0)
(-0.305513496133 0.0141296990685 0)
(-0.302858814024 0.0165271181406 0)
(-0.299882503369 0.0188691023075 0)
(-0.296593003596 0.021162495778 0)
(-0.292998183162 0.0234145382974 0)
(-0.28910512112 0.025632947438 0)
(-0.284919865847 0.0278259354191 0)
(-0.280447181429 0.0300021464544 0)
(-0.275690298919 0.0321704999828 0)
(-0.270650697289 0.0343399274945 0)
(-0.265327945991 0.0365189968399 0)
(-0.25971964542 0.0387154277409 0)
(-0.253821504441 0.0409355140483 0)
(-0.247627594417 0.0431834826033 0)
(-0.241130807887 0.0454608423114 0)
(-0.234323532433 0.047765790353 0)
(-0.227198533869 0.0500927441474 0)
(-0.219750005184 0.0524320979513 0)
(-0.211974739977 0.0547702417514 0)
(-0.203873359324 0.0570899250855 0)
(-0.195451421364 0.0593710911671 0)
(-0.186720536815 0.0615918389839 0)
(-0.177699054584 0.0637302810646 0)
(-0.168412673429 0.0657660318678 0)
(-0.158894271856 0.0676830324338 0)
(-0.149184191919 0.0694708712401 0)
(-0.139327578575 0.0711297568708 0)
(-0.129376769123 0.0726679749184 0)
(-0.119384848395 0.0741119756106 0)
(-0.10940686438 0.0755023029081 0)
(-0.0994949630548 0.0768939072521 0)
(-0.089698948334 0.0783665133032 0)
(-0.0800598970856 0.0800185618096 0)
(-0.0706025303031 0.0819611178579 0)
(-0.0613431473884 0.0843243109788 0)
(-0.0522704248099 0.0872499787697 0)
(-0.0433180900608 0.0908692087333 0)
(-0.0345690660075 0.0951928080329 0)
(-0.0250875132115 0.100131820182 0)
(-0.0165832903978 0.104431583456 0)
(-0.00501174192615 0.102692822922 0)
(-0.0180298339585 -0.100218485643 0)
(-0.0391891208342 -0.12010190459 0)
(-0.0640893783312 -0.134065067381 0)
(-0.0852420634041 -0.144222997703 0)
(-0.104514988154 -0.15022934943 0)
(-0.121837115224 -0.152522045601 0)
(-0.137522665392 -0.151645084283 0)
(-0.151808973707 -0.148270166758 0)
(-0.16489622862 -0.143035038833 0)
(-0.17695538966 -0.136505223841 0)
(-0.188126145274 -0.129152512896 0)
(-0.198519041173 -0.121349252955 0)
(-0.208217941323 -0.113375103038 0)
(-0.217283830643 -0.105430139047 0)
(-0.225759602506 -0.097650448583 0)
(-0.233674941193 -0.0901232234185 0)
(-0.241050665656 -0.0828997663052 0)
(-0.247902138542 -0.0760058574777 0)
(-0.25424165911 -0.0694495906595 0)
(-0.260079961153 -0.0632270994665 0)
(-0.265427032055 -0.0573266667838 0)
(-0.270292479602 -0.0517316555218 0)
(-0.274685637097 -0.0464226011277 0)
(-0.278615544378 -0.0413787101613 0)
(-0.282090893761 -0.036578932457 0)
(-0.285119991455 -0.0320027191744 0)
(-0.287710757508 -0.0276305434872 0)
(-0.289870756556 -0.023444245264 0)
(-0.291607220543 -0.0194272543054 0)
(-0.292927062166 -0.0155647063184 0)
(-0.293837132261 -0.0118433986373 0)
(-0.294345095526 -0.0082516187829 0)
(-0.29445968498 -0.00477932963569 0)
(-0.29418578516 -0.00141920444348 0)
(-0.293515537134 0.00183305796372 0)
(-0.292496101861 0.00497902551717 0)
(-0.291108129239 0.0080250607934 0)
(-0.289366974119 0.0109795845237 0)
(-0.287281036243 0.0138496123144 0)
(-0.284859723717 0.0166417352811 0)
(-0.282112693147 0.0193624902288 0)
(-0.279049707699 0.0220186479681 0)
(-0.27568042505 0.0246174343132 0)
(-0.27201415701 0.0271666993739 0)
(-0.26805959183 0.0296750297977 9.53494219948e-29)
(-0.26382447968 0.0321517888866 -9.59104310591e-29)
(-0.259315289269 0.0346070636547 0)
(-0.25453685358 0.0370514956055 0)
(-0.249492034764 0.0394959740735 0)
(-0.24418144917 0.0419511778944 0)
(-0.238603300978 0.0444269650648 0)
(-0.232753376715 0.0469316262955 0)
(-0.226625261636 0.0494710302854 0)
(-0.220210825596 0.0520477322121 0)
(-0.213500988268 0.0546601467452 0)
(-0.206486781718 0.0573018405055 0)
(-0.199160628789 0.059961139906 0)
(-0.191517786127 0.0626210515593 0)
(-0.183557983476 0.0652595107308 0)
(-0.175286656902 0.067850626766 0)
(-0.166716682593 0.070365222941 0)
(-0.157868974934 0.0727738945293 0)
(-0.148773964388 0.0750476466428 0)
(-0.139470352455 0.0771630793291 0)
(-0.130008437636 0.0791007424539 0)
(-0.120441286171 0.0808571445573 0)
(-0.11083774413 0.0824319108451 0)
(-0.101261570929 0.0838507511478 0)
(-0.0917890715059 0.0851559616602 0)
(-0.0824863336547 0.0864008714884 0)
(-0.0734219769721 0.0876714243074 0)
(-0.0646638975395 0.0890808525943 0)
(-0.0562490168529 0.0907517281278 0)
(-0.0482139576255 0.0928310859622 0)
(-0.0405712944314 0.0954887338275 0)
(-0.0332281337755 0.0989000273918 0)
(-0.0264471186881 0.103147620448 0)
(-0.0188772810924 0.108201030775 0)
(-0.0131633964884 0.113153827701 0)
(-0.00348048534363 0.112425576956 0)
(-0.0164044924247 -0.126592259065 0)
(-0.0368887346402 -0.144640049032 0)
(-0.0608094266655 -0.156301627237 0)
(-0.0809318122785 -0.164181227 0)
(-0.0993195819183 -0.168109228712 0)
(-0.115732033997 -0.168582664758 0)
(-0.130501151947 -0.16615308105 0)
(-0.143860015668 -0.161463308451 0)
(-0.156029056713 -0.155116887803 0)
(-0.167196840169 -0.147644391373 0)
(-0.177516091588 -0.139482686037 0)
(-0.187104512555 -0.130971818116 0)
(-0.19604845082 -0.122363577904 0)
(-0.204408659506 -0.113835814079 0)
(-0.212226694572 -0.105508233536 0)
(-0.219530785767 -0.0974568765926 0)
(-0.22634055583 -0.0897260314722 0)
(-0.232670400608 -0.0823373938562 0)
(-0.238531667873 -0.0752968328816 0)
(-0.243933917649 -0.0685993032277 0)
(-0.24888556802 -0.0622324117115 0)
(-0.253394182194 -0.0561790345145 0)
(-0.257466580229 -0.0504192621903 0)
(-0.261108890319 -0.0449318555903 0)
(-0.26432660306 -0.0396953316414 0)
(-0.267124657455 -0.0346887568589 0)
(-0.269507560265 -0.0298923025911 0)
(-0.271479509801 -0.0252876140522 0)
(-0.273044496023 -0.0208580537998 0)
(-0.274206433903 -0.0165888289629 0)
(-0.274969591974 -0.0124668763305 0)
(-0.275339311234 -0.00848046211778 0)
(-0.27532138384 -0.00461940993076 9.09358806515e-29)
(-0.274916856586 -0.000877447077625 -9.22881006016e-29)
(-0.274115980959 0.00274656074848 0)
(-0.272971561098 0.00625469945003 0)
(-0.271457273164 0.00965638874162 0)
(-0.26958940299 0.0129584197287 0)
(-0.267376035817 0.0161669014864 0)
(-0.264826987724 0.0192877762621 0)
(-0.261952736945 0.022327174971 0)
(-0.258764227735 0.0252916955339 0)
(-0.255272620399 0.0281886428685 0)
(-0.251489016024 0.0310262328397 0)
(-0.247424130652 0.033813747121 0)
(-0.243087910191 0.036561614905 0)
(-0.238489088743 0.0392813895904 0)
(-0.233634708312 0.0419855844267 0)
(-0.228529634448 0.044687332 0)
(-0.223176121556 0.0473998408138 0)
(-0.217573493987 0.0501356386356 0)
(-0.211718007216 0.0529056249792 0)
(-0.205602984022 0.0557179441457 0)
(-0.199219320081 0.0585767607393 0)
(-0.192556328996 0.061481151727 0)
(-0.185603032224 0.0644240290997 0)
(-0.178349735122 0.0673915538705 0)
(-0.170789672867 0.0703630271779 0)
(-0.162921474383 0.0733105577017 0)
(-0.154749950611 0.0762017104925 0)
(-0.146289398293 0.0789980318762 0)
(-0.137562798133 0.081661575184 0)
(-0.128606603777 0.0841517349251 0)
(-0.119463628854 0.0864373710857 0)
(-0.110198917437 0.0884847409277 0)
(-0.100867138313 0.0902883583616 0)
(-0.0915653808143 0.0918332934191 0)
(-0.082355973897 0.0931423826994 0)
(-0.0733513054623 0.094261184644 0)
(-0.064629516038 0.0952403160639 0)
(-0.0562725254236 0.0961660950745 0)
(-0.0483911477776 0.0971709610383 0)
(-0.041031713032 0.0983914854062 0)
(-0.0342512558904 0.0999894646564 0)
(-0.0280952577863 0.102166138706 0)
(-0.0224271814507 0.105132359577 0)
(-0.0177150367789 0.109072853379 0)
(-0.01216608113 0.113954844633 0)
(-0.00937827231579 0.119297575102 0)
(-0.00185477044592 0.119664439313 0)
(-0.0148778163635 -0.151104680194 0)
(-0.034347474879 -0.167760211746 0)
(-0.0569870157628 -0.177362071797 0)
(-0.0759153267587 -0.183107843399 0)
(-0.09330824142 -0.185041932571 0)
(-0.108778822595 -0.183742292481 0)
(-0.122672516567 -0.1797861987 0)
(-0.13519997615 -0.173806213341 0)
(-0.146580934137 -0.166378732248 0)
(-0.157002373645 -0.157999526146 0)
(-0.166615801893 -0.149068269589 0)
(-0.17553706613 -0.139890359722 0)
(-0.183850678448 -0.130688374518 0)
(-0.191616237753 -0.121617620126 0)
(-0.198875093897 -0.112781711369 0)
(-0.20565607236 -0.104245955835 0)
(-0.211979783435 -0.0960478580342 0)
(-0.217861528951 -0.0882049491432 0)
(-0.22331308614 -0.0807205062543 0)
(-0.228343718262 -0.073587747753 0)
(-0.23296072252 -0.0667929704187 0)
(-0.237169744484 -0.0603179473051 0)
(-0.240975001075 -0.0541417869147 0)
(-0.244379490539 -0.0482423759993 0)
(-0.247385221696 -0.0425974833648 0)
(-0.249993472307 -0.0371855786745 0)
(-0.252205059508 -0.0319864066035 0)
(-0.254020565597 -0.0269813641657 0)
(-0.255440529163 -0.0221537452909 0)
(-0.256465715891 -0.0174888687369 0)
(-0.257097908725 -0.0129739124722 0)
(-0.257340463466 -0.00859726126936 0)
(-0.257195623297 -0.00434861874095 0)
(-0.256657775738 -0.000223016114597 0)
(-0.255728296231 0.00377468912857 0)
(-0.254446739652 0.00764735742494 0)
(-0.252791333371 0.011409017943 0)
(-0.250777009626 0.0150630460422 0)
(-0.248412150538 0.0186140079952 0)
(-0.245707114465 0.0220667868698 0)
(-0.242673242951 0.0254267687065 0)
(-0.239322669877 0.0287000584052 0)
(-0.235668091934 0.0318937311361 0)
(-0.23172250023 0.035016083518 0)
(-0.227498837444 0.0380768554336 0)
(-0.223009561226 0.0410873851047 0)
(-0.218266109128 0.0440606509359 0)
(-0.213278279082 0.0470111448982 0)
(-0.208053564429 0.0499545226012 0)
(-0.202596509067 0.0529069855835 0)
(-0.196908181363 0.0558843564665 0)
(-0.190985831687 0.0589009027749 0)
(-0.1848228591 0.0619678782025 0)
(-0.178409351338 0.0650917902727 0)
(-0.171732944086 0.0682730291352 0)
(-0.164780387291 0.0715041840691 0)
(-0.157539647086 0.0747691227518 0)
(-0.15000120799 0.0780434221652 0)
(-0.142162830912 0.0812917160647 0)
(-0.134027607555 0.0844750891359 0)
(-0.125612408502 0.0875426354729 0)
(-0.116940000016 0.0904479228833 0)
(-0.108057125611 0.0931336961059 0)
(-0.0990032948362 0.0955627983225 0)
(-0.0898722814288 0.0976785861854 0)
(-0.080698125955 0.0994772795694 0)
(-0.071639983332 0.100923942651 0)
(-0.0627233854244 0.102035062666 0)