/*--------------------------------*- C++ -*----------------------------------*\
| =========                 |                                                 |
| \\      /  F ield         | OpenFOAM: The Open Source CFD Toolbox           |
|  \\    /   O peration     | Version:  v1806                                 |
|   \\  /    A nd           | Web:      www.OpenFOAM.com                      |
|    \\/     M anipulation  |                                                 |
\*---------------------------------------------------------------------------*/
FoamFile
{
    version     2.0;
    format      ascii;
    class       volVectorField;
    location    "600";
    object      Ua;
}
// * * * * * * * * * * * * * * * * * * * * * * * * * * * * * * * * * * * * * //

dimensions      [0 1 -1 0 0 0 0];


internalField   nonuniform List<vector> 
6400
(
(-0.775063231632 -0.338610523926 0)
(-1.55048443305 0.396628120399 0)
(-2.65518371806 1.50204135925 0)
(-3.76166977783 1.46895787321 0)
(-4.71585693589 0.922655777615 0)
(-6.03411572422 -3.05699381893 0)
(-6.87372664111 -4.67878963014 0)
(-7.54803376318 -6.4294514809 0)
(-8.1089238761 -8.35927381834 0)
(-8.55969603442 -10.411210333 0)
(-8.92006764772 -12.5426921809 0)
(-9.21274963005 -14.7282020196 0)
(-9.45383701605 -16.9517850003 0)
(-9.65337208457 -19.2017754628 0)
(-9.81835201347 -21.4688538184 0)
(-9.95442039749 -23.7455858339 0)
(-10.0663186226 -26.026200049 0)
(-10.1579569629 -28.3063179392 0)
(-10.2325049446 -30.5826974303 0)
(-10.2925255568 -32.8530452861 0)
(-10.3400995433 -35.1158879813 0)
(-10.3769207037 -37.3704776979 0)
(-10.4043690032 -39.6167187097 0)
(-10.4235704339 -41.855109372 0)
(-10.4354472096 -44.0866988586 0)
(-10.4407594887 -46.3130563445 0)
(-10.4401398026 -48.5362529597 0)
(-10.4341206611 -50.7588552678 0)
(-10.4231605373 -52.9839310596 0)
(-10.4076608188 -55.2150758638 0)
(-10.3880113991 -57.4564557577 0)
(-10.3645974998 -59.7129633575 0)
(-10.3380538477 -61.990415526 0)
(-10.3089433324 -64.2962808077 0)
(-10.278115171 -66.6381341225 0)
(-10.2388499041 -69.0171481171 0)
(-10.1784685019 -71.3959190207 0)
(-10.0897544824 -73.7018599956 0)
(-9.98232579313 -75.7696497176 0)
(-9.86406578389 -77.577692831 0)
(-9.74024321952 -79.1143726923 0)
(-9.61320124066 -80.3723634945 0)
(-9.48390762222 -81.3466290264 0)
(-9.35300763989 -82.0339926601 0)
(-9.22110609813 -82.4330493282 0)
(-9.08875774257 -82.5440578823 0)
(-8.95646164962 -82.3688473282 0)
(-8.82469435351 -81.9107851216 0)
(-8.69394505834 -81.1748022826 0)
(-8.56473789925 -80.1674523838 0)
(-8.43764582429 -78.8969933896 0)
(-8.31330133732 -77.3734869572 0)
(-8.19240497546 -75.6089108704 0)
(-8.07572934133 -73.6172739629 0)
(-7.96411635486 -71.4147189802 0)
(-7.85846510544 -69.019591978 0)
(-7.75970838904 -66.4524541106 0)
(-7.66877625078 -63.7360071686 0)
(-7.58654625012 -60.8949062244 0)
(-7.51378128137 -57.955434255 0)
(-7.45105756083 -54.9450233181 0)
(-7.39868687064 -51.8916154723 0)
(-7.35663778018 -48.8228723121 0)
(-7.32446246876 -45.7652543328 0)
(-7.30123079928 -42.7430040714 0)
(-7.2854832802 -39.7770804342 0)
(-7.27518191871 -36.8840794624 0)
(-7.26771408463 -34.0752257139 0)
(-7.25979913386 -31.3553822558 0)
(-7.24767851487 -28.7223858601 0)
(-7.22660961126 -26.1660862125 0)
(-7.19224639677 -23.6690408504 0)
(-7.13732471899 -21.2042590885 0)
(-7.06113887927 -18.7435759961 0)
(-6.94610567507 -16.2415154394 0)
(-6.82065442304 -13.6884855316 0)
(-6.57919463175 -10.9598497312 0)
(-6.42761418212 -8.18384532518 0)
(-5.24077045151 -4.30824478788 0)
(-4.33986004001 -0.343829662113 0)
(-1.09097144506 -1.51098158979 0)
(-1.52332985174 -1.15299782634 0)
(-3.20567969989 -2.33359896824 0)
(-4.48311431783 -3.56619887292 0)
(-5.78186689734 -2.96599421714 0)
(-6.93331327171 -1.47231886804 0)
(-7.87091700012 -0.0869051724719 0)
(-8.78760551928 1.2226081969 0)
(-9.6958598064 2.51463938661 0)
(-10.5619454258 3.82002974967 0)
(-11.3691190198 5.15354561553 0)
(-12.1153658839 6.52141074181 0)
(-12.8027286897 7.92546050141 0)
(-13.4335577477 9.3653868633 0)
(-14.0105170685 10.8398911532 0)
(-14.5368388848 12.3472321644 0)
(-15.016110774 13.8855023341 0)
(-15.4519470932 15.4527929129 0)
(-15.8477870131 17.047310332 0)
(-16.2068167586 18.667458469 0)
(-16.5319500277 20.3119024389 0)
(-16.8258269726 21.9796179805 0)
(-17.0908220844 23.6699350801 0)
(-17.3290583925 25.3825738862 0)
(-17.5424260495 27.1176781776 0)
(-17.7326024177 28.8758442902 0)
(-17.9010711301 30.6581509323 0)
(-18.0491422418 32.4661881177 0)
(-18.1779646388 34.302091938 0)
(-18.2885569147 36.1685801655 0)
(-18.3817777866 38.0690060896 0)
(-18.4584480225 40.0073783523 0)
(-18.5190215748 41.9884644959 0)
(-18.5650172618 44.0174505247 0)
(-18.5987786602 46.1000359708 0)
(-18.6400027626 48.2381022206 0)
(-18.6972338653 50.3181877544 0)
(-18.7548288058 52.2552516514 0)
(-18.7892712741 53.9342346149 0)
(-18.7942600709 55.3558949537 0)
(-18.7694936761 56.5194509794 0)
(-18.71489992 57.4241998835 0)
(-18.629742948 58.0706807118 0)
(-18.5130500456 58.4608371008 0)
(-18.3638410571 58.5979613357 0)
(-18.1811262154 58.4867053593 0)
(-17.9638727178 58.1331236461 0)
(-17.7110099809 57.5447057021 0)
(-17.4214593633 56.7303927664 0)
(-17.0941707965 55.700599608 0)
(-16.7281634635 54.4672426438 0)
(-16.3225749935 53.0437771586 0)
(-15.8767229426 51.4452282012 0)
(-15.3901805321 49.6882066445 0)
(-14.8628672889 47.7908861005 0)
(-14.2951534044 45.7729249058 0)
(-13.6879746528 43.6553055526 0)
(-13.0429513418 41.4600777079 0)
(-12.3625020736 39.209986401 0)
(-11.6499398953 36.9279870382 0)
(-10.9095370751 34.6366505031 0)
(-10.1465444913 32.3574842846 0)
(-9.36715356743 30.1101975473 0)
(-8.57839442873 27.9119560305 0)
(-7.78796655408 25.7766682182 0)
(-7.00401675497 23.7143511637 0)
(-6.23485689035 21.7306173183 0)
(-5.48869808128 19.826316868 0)
(-4.77326916475 17.9974027308 0)
(-4.09575227537 16.2349803705 0)
(-3.4619258085 14.525939307 0)
(-2.877572583 12.8534545379 0)
(-2.34387786051 11.2000968636 0)
(-1.86968077123 9.54670555986 0)
(-1.43711896976 7.8914427041 0)
(-1.10099279254 6.22023251077 0)
(-0.703667831733 4.65384642826 0)
(-0.774304720177 3.11838070433 0)
(0.635574612913 3.31061891395 0)
(-1.91729706695 4.24428616768 0)
(-2.69007375736 -3.34909420646 0)
(-4.09718429821 -4.0017718119 0)
(-4.5150653147 -2.96228581117 1.39742220587e-29)
(-4.43261610902 -2.31801112675 -8.80045181635e-30)
(-4.52523796807 -1.85016250476 2.37380097332e-29)
(-4.77668722566 -1.75634354655 -1.93315675082e-29)
(-5.18038456551 -1.83837850678 5.35336900691e-29)
(-5.69566464112 -1.98934612731 -4.74570208769e-29)
(-6.25410795358 -2.18078816941 0)
(-6.79914096504 -2.41114547052 0)
(-7.30223693861 -2.68407185201 0)
(-7.75408296746 -3.00398055766 0)
(-8.1534791113 -3.37504485866 0)
(-8.50217274453 -3.80039695055 0)
(-8.80332964019 -4.28178948755 0)
(-9.06090961344 -4.81976405566 0)
(-9.27913673011 -5.41399591348 0)
(-9.46210407882 -6.06359501021 0)
(-9.61356937695 -6.76732843733 0)
(-9.73688752552 -7.52379247978 0)
(-9.83500773092 -8.33155368544 0)
(-9.91049478749 -9.18926617862 0)
(-9.9655597525 -10.0957673951 0)
(-10.0020952296 -11.050158052 0)
(-10.0217120696 -12.051869663 0)
(-10.0257750983 -13.100725026 0)
(-10.0154364663 -14.1969945922 0)
(-9.99166598444 -15.341449835 0)
(-9.95527798221 -16.5354279059 0)
(-9.90695633032 -17.7808759749 -1.35423990828e-27)
(-9.84726765631 -19.080490104 1.35308740713e-27)
(-9.77668173 -20.4376353354 0)
(-9.6953783165 -21.8569870504 0)
(-9.60265998038 -23.3432010984 0)
(-9.49329797895 -24.9054563769 0)
(-9.3552297353 -26.506382781 0)
(-9.20641295849 -27.947807591 0)
(-9.07036169264 -29.1756504337 0)
(-8.95437704741 -30.1920880845 0)
(-8.85568861672 -30.9943266167 0)
(-8.77202440961 -31.5821237132 0)
(-8.70314145796 -31.9584006274 0)
(-8.64940684184 -32.1281651736 0)
(-8.61113558158 -32.0980725127 0)
(-8.58852904498 -31.8763553652 0)
(-8.58166305142 -31.4727393253 0)
(-8.59041271472 -30.8982941931 0)
(-8.61436597056 -30.1652781871 0)
(-8.65275268333 -29.2870069601 0)
(-8.70438379354 -28.2777447393 0)
(-8.76759269261 -27.1526107142 0)
(-8.84017827753 -25.9274891809 0)
(-8.91935289796 -24.6189332569 0)
(-9.00169996112 -23.244044304 0)
(-9.08314683205 -21.8203110863 0)
(-9.15896073989 -20.3653902107 0)
(-9.22377645275 -18.8968176961 0)
(-9.27166544546 -17.431646572 0)
(-9.29625476693 -15.9860194097 0)
(-9.29090127418 -14.57469422 0)
(-9.24892111738 -13.2105559845 0)
(-9.16386791192 -11.9041522492 0)
(-9.0298435949 -10.663296616 0)
(-8.84182050175 -9.49278065415 0)
(-8.59594141911 -8.39422802206 0)
(-8.28977780089 -7.36611773642 0)
(-7.92248797091 -6.40398454996 0)
(-7.49493617363 -5.50083741811 0)
(-7.00954510573 -4.64776027422 0)
(-6.4704638837 -3.83489747235 0)
(-5.88247033223 -3.05249404314 0)
(-5.25293326618 -2.29341287981 0)
(-4.58479082872 -1.55366159309 0)
(-3.89395451332 -0.841567076194 0)
(-3.15717886884 -0.164396624706 0)
(-2.46387217857 0.420345465442 0)
(-1.57647888971 0.97817786617 0)
(-1.37107586618 1.27505604211 0)
(1.28809353943 3.09840267776 0)
(-2.7218505629 4.44248841805 0)
(-1.3613627076 -7.19704991924 0)
(-4.73215832137 -2.04304528009 0)
(-3.30745096102 -1.54210700496 0)
(-2.7430670764 -2.26016703414 0)
(-3.25107593752 -2.64869588192 0)
(-3.97599595457 -2.76915391475 0)
(-4.71164484714 -2.73407868639 0)
(-5.43895824755 -2.57826881506 0)
(-6.12569123401 -2.33864418287 0)
(-6.74765941813 -2.05001924222 0)
(-7.30127613858 -1.73438515961 0)
(-7.79334860326 -1.40323723787 0)
(-8.23247984621 -1.06198372991 0)
(-8.62639599007 -0.712322479016 0)
(-8.98170136145 -0.353538166491 0)
(-9.30397525041 0.0164979479049 0)
(-9.59783427357 0.400573128715 0)
(-9.86702089856 0.80166123463 0)
(-10.114535985 1.22267118262 0)
(-10.3427833529 1.66632897974 0)
(-10.553699242 2.13513645371 0)
(-10.7488574552 2.63137798881 0)
(-10.9295521595 3.15715831513 0)
(-11.0968626758 3.71445978158 0)
(-11.2517045682 4.30521060435 0)
(-11.3948688769 4.93135900904 0)
(-11.5270544888 5.5949515773 0)
(-11.6488869758 6.29821223597 0)
(-11.7609489948 7.0436309685 0)
(-11.8637502372 7.83403878055 0)
(-11.9578400865 8.67273994509 0)
(-12.0434610895 9.56351685888 0)
(-12.1215289906 10.5110682244 0)
(-12.1913266411 11.5205221273 0)
(-12.2599062814 12.6003810079 0)
(-12.3199459682 13.6534141835 0)
(-12.3500394309 14.5519969918 0)
(-12.3489210459 15.2940731497 0)
(-12.3217512136 15.8728198038 0)
(-12.2689622812 16.2865998298 0)
(-12.1892869701 16.5387727973 0)
(-12.0825934853 16.6357226784 0)
(-11.9496234679 16.5861031192 0)
(-11.7913285609 16.4005310346 0)
(-11.6087574743 16.0911937818 0)
(-11.4031697133 15.6714148541 2.72545053621e-27)
(-11.1761111071 15.1552702849 -2.74992867534e-27)
(-10.9294367663 14.5572628569 0)
(-10.6653215921 13.8920369192 0)
(-10.3862680187 13.1741272507 0)
(-10.095102023 12.4177404737 0)
(-9.79494911694 11.636563866 0)
(-9.48918543559 10.8435923057 0)
(-9.18135963468 10.0509624557 0)
(-8.87508139191 9.26978537577 0)
(-8.57387336811 8.50997261201 0)
(-8.28098690199 7.78005754569 0)
(-7.99918631441 7.08702107025 1.69362257225e-27)
(-7.73051334265 6.43613876877 -1.73604276516e-27)
(-7.4760498927 5.83087190861 0)
(-7.23570387466 5.27282725809 0)
(-7.00804695891 4.76180736507 0)
(-6.79023243985 4.29596672281 0)
(-6.57801894855 3.87207759132 0)
(-6.36590849401 3.48589963959 0)
(-6.14741356433 3.13263483606 0)
(-5.91540029414 2.8074534002 0)
(-5.66258829361 2.50605000372 0)
(-5.38188606431 2.22529794027 0)
(-5.06732302992 1.96378364746 0)
(-4.71338916264 1.72279278657 0)
(-4.31869832725 1.5062132961 0)
(-3.87736407685 1.32351405349 0)
(-3.40441864706 1.18302200547 0)
(-2.86302105426 1.11118152692 0)
(-2.37806264888 1.08997445543 0)
(-1.60365883391 1.24492538039 0)
(-1.76646664682 1.31057556223 0)
(1.58303915269 3.20758014764 0)
(-3.76749515843 4.22168344072 0)
(8.69611611736 -12.1066252813 0)
(-3.10588195722 -2.04793452411 0)
(-1.479394645 -2.42521478508 0)
(-1.79921994936 -3.35041124606 0)
(-3.11092894647 -3.59076927314 0)
(-4.13548973046 -3.56191362449 0)
(-4.90507352688 -3.40821920287 0)
(-5.55668241998 -3.17086873577 0)
(-6.1143497495 -2.89672125559 0)
(-6.58484562125 -2.62356445755 0)
(-6.98490173565 -2.37187721902 0)
(-7.33144917249 -2.15081230522 0)
(-7.63657436637 -1.96395576084 0)
(-7.90833137581 -1.81207469721 0)
(-8.15223529357 -1.69445640664 0)
(-8.37211249607 -1.60975891381 0)
(-8.57059652615 -1.55654493815 0)
(-8.74949627045 -1.53355583579 0)
(-8.9100749016 -1.53981797839 0)
(-9.05324527891 -1.57466642852 0)
(-9.17969870417 -1.63773415359 0)
(-9.28998684257 -1.72893053498 0)
(-9.38457203257 -1.84841933987 0)
(-9.46385708032 -1.99660310825 0)
(-9.52820164901 -2.17411635884 0)
(-9.57793126325 -2.38183027276 0)
(-9.61333930812 -2.62086751441 0)
(-9.63469161753 -2.89263079869 0)
(-9.64221269348 -3.19883655171 0)
(-9.63611626014 -3.54157819422 0)
(-9.61650505771 -3.9233452231 -1.8796933958e-27)
(-9.58363641541 -4.34720329775 1.88652195969e-27)
(-9.53712712652 -4.816508019 0)
(-9.47795249654 -5.33603488534 0)
(-9.40215144685 -5.90932692128 0)
(-9.32124267975 -6.42492130284 0)
(-9.24688238468 -6.84020946325 0)
(-9.18055268522 -7.14505790496 0)
(-9.12316437218 -7.33746550328 0)
(-9.07445267181 -7.42011925931 0)
(-9.03293072881 -7.39779349839 0)
(-8.99707216389 -7.27745022313 0)
(-8.96556672031 -7.06828176483 0)
(-8.936999856 -6.78115573285 0)
(-8.90968527282 -6.42794891488 0)
(-8.8816923839 -6.02099245394 0)
(-8.85090078914 -5.57260935692 0)
(-8.81503162715 -5.09471460524 0)
(-8.77168230092 -4.59848481442 0)
(-8.71838433249 -4.09410527653 0)
(-8.65268467007 -3.59059349927 0)
(-8.57224558418 -3.09568913636 0)
(-8.4749593282 -2.61580085196 0)
(-8.35907314013 -2.15599869132 0)
(-8.22331684999 -1.72004459977 0)
(-8.06702144957 -1.3104540975 0)
(-7.8902130263 -0.92858762107 0)
(-7.69366392028 -0.57477067717 0)
(-7.47888214166 -0.248445488132 0)
(-7.24802311468 0.0516463706728 0)
(-7.00371443273 0.327252102591 0)
(-6.7487960955 0.580375793443 0)
(-6.48599128222 0.813039201098 0)
(-6.21754079684 1.02705366724 0)
(-5.944836311 1.22382262024 0)
(-5.66811981901 1.40418647199 0)
(-5.38624470942 1.56833078704 0)
(-5.09667752416 1.71572466047 0)
(-4.7953931885 1.84517333484 0)
(-4.47771477363 1.95476448237 0)
(-4.13730102579 2.04234607733 0)
(-3.77114029882 2.1049229392 0)
(-3.36875330888 2.14215576874 0)
(-2.94724781093 2.14980953994 0)
(-2.45576807627 2.14515584021 0)
(-2.06280446323 2.10033845717 0)
(-1.3054866116 2.16187894725 0)
(-1.82193970144 2.02952148883 0)
(2.20841339456 3.83064746275 0)
(-4.81988230925 4.30235067208 0)
(14.7319372639 -11.1630489062 0)
(-4.60509022628 -1.72876933448 0)
(-1.21442510015 -3.68648791144 0)
(-2.03953552746 -4.5528397223 0)
(-3.61408995711 -4.56655200062 0)
(-4.5336811315 -4.36622742235 0)
(-5.1287569529 -4.05492078892 0)
(-5.61020619921 -3.68063924905 0)
(-6.00976163558 -3.29669207767 0)
(-6.34284395151 -2.93348880832 0)
(-6.63160734476 -2.60158326796 0)
(-6.89270209865 -2.30237111822 0)
(-7.1352785019 -2.03359577549 0)
(-7.36402343572 -1.79144043284 0)
(-7.58134121624 -1.57153961533 0)
(-7.7883326152 -1.3695624231 0)
(-7.98532268566 -1.18149452338 0)
(-8.17222661962 -1.00372438957 0)
(-8.34879083287 -0.833032199677 0)
(-8.5147309325 -0.666540811153 0)
(-8.66980220937 -0.501657213122 0)
(-8.81383145487 -0.336014752215 0)
(-8.94672743092 -0.167420107626 0)
(-9.06847987526 0.006195282084 0)
(-9.17915328185 0.186819696958 0)
(-9.27887896754 0.37640411176 0)
(-9.3678478494 0.576904276136 0)
(-9.44630359244 0.790326996648 0)
(-9.51453967891 1.01877534165 0)
(-9.57289204035 1.26451696631 0)
(-9.621751699 1.5300161325 0)
(-9.66154692258 1.81811548557 0)
(-9.69285809279 2.13183171119 0)
(-9.71628176531 2.47534702586 0)
(-9.73217828119 2.84613015716 0)
(-9.73145845715 3.16672955067 0)
(-9.7110403475 3.42684825915 0)
(-9.67090229088 3.62154316207 0)
(-9.61216791054 3.74904560305 0)
(-9.53617426107 3.81049572723 0)
(-9.44400538019 3.8102377623 0)
(-9.33681891265 3.75517050091 0)
(-9.21611999949 3.65375143689 0)
(-9.08366789242 3.51525937491 0)
(-8.94130616372 3.3492552365 0)
(-8.79087658978 3.16509686289 0)
(-8.63416935277 2.9715092599 0)
(-8.47285725152 2.77625343351 0)
(-8.30841544149 2.58590820836 0)
(-8.14204357959 2.4057552839 0)
(-7.97459908499 2.23975438578 0)
(-7.80654524458 2.09059426015 0)
(-7.63791924596 1.95980564744 0)
(-7.46832701441 1.84792046196 0)
(-7.29697168635 1.7546632545 0)
(-7.12272049559 1.67916113724 0)
(-6.94421130076 1.62016058948 0)
(-6.75999428593 1.57623872535 0)
(-6.56869703762 1.54599788507 0)
(-6.36919297961 1.52823065346 0)
(-6.16074585554 1.52204411785 0)
(-5.94309960517 1.52693272512 0)
(-5.71648374818 1.54279298139 0)
(-5.48151713506 1.5698795146 0)
(-5.23899786165 1.60870622049 0)
(-4.98961852472 1.65990078748 0)
(-4.73357768541 1.72403613567 0)
(-4.47031969866 1.8013979159 0)
(-4.19798557711 1.89180276479 0)
(-3.91395038311 1.9941699741 0)
(-3.61294628164 2.10651451691 0)
(-3.29283730648 2.22441255157 0)
(-2.94023571496 2.34375161158 0)
(-2.57527165158 2.45174198114 0)
(-2.12854035877 2.55430642606 0)
(-1.81291869715 2.60028254157 0)
(-1.02613295198 2.73191578213 0)
(-1.88399396515 2.57394496119 0)
(2.9739945507 4.46020073035 0)
(-6.00851070778 4.48490050445 0)
(20.9083229499 -11.1312172338 0)
(-7.53953866076 -2.49075817918 0)
(-1.30719314575 -5.39774391862 0)
(-2.5314159393 -5.74499516661 0)
(-4.05163385202 -5.39045565852 0)
(-4.69491737716 -4.96234605804 0)
(-5.07163971411 -4.48678780012 0)
(-5.38672213307 -4.00830898877 0)
(-5.65332609847 -3.56902199236 0)
(-5.88506152539 -3.18174907082 0)
(-6.10071431303 -2.84448144107 8.98683962072e-28)
(-6.31097932698 -2.55154555536 -8.86531732636e-28)
(-6.51946314922 -2.29679422478 0)
(-6.72651149965 -2.07438486358 0)
(-6.93114887343 -1.87918733564 0)
(-7.1318078517 -1.70696102458 0)
(-7.32670792257 -1.5543292966 0)
(-7.51410556447 -1.41866326163 0)
(-7.69243450151 -1.29795112918 0)
(-7.86036161414 -1.19068184495 0)
(-8.01679426444 -1.09574918256 0)
(-8.16086451711 -1.01237688371 0)
(-8.29190353063 -0.940062254193 0)
(-8.40941296485 -0.878535811908 0)
(-8.51303696909 -0.827733543784 0)
(-8.60253704554 -0.787780196231 0)
(-8.67776979583 -0.758980818924 0)
(-8.73866936339 -0.741821702976 0)
(-8.78523033085 -0.736974946854 0)
(-8.81749912527 -0.745320552581 0)
(-8.83555518485 -0.767948978582 0)
(-8.8395059799 -0.80624934069 2.09222288519e-27)
(-8.82945264593 -0.861811892375 -2.11002627479e-27)
(-8.80547709796 -0.936903934185 0)
(-8.76879717181 -1.02162334008 0)
(-8.72658237377 -1.07871893808 0)
(-8.68026879267 -1.10318587132 0)
(-8.63024962569 -1.09222626155 0)
(-8.57684031555 -1.04569474151 0)
(-8.5200545912 -0.965947280099 0)
(-8.45935404009 -0.857079480373 0)
(-8.39382205441 -0.724225489339 0)
(-8.32245754201 -0.573107679513 0)
(-8.24429424136 -0.409614586706 0)
(-8.15840913125 -0.239361496087 0)
(-8.06394850506 -0.0673276309783 0)
(-7.96018541488 0.102378568928 0)
(-7.84657251007 0.266634139576 0)
(-7.72277422654 0.423315061947 0)
(-7.58868068705 0.571224854892 0)
(-7.44440548744 0.709955716038 0)
(-7.29026582008 0.839705335338 0)
(-7.12674380653 0.961073113158 0)
(-6.95443101355 1.07485922177 0)
(-6.77396126412 1.18188601645 0)
(-6.58593990635 1.28285883554 0)
(-6.39088021455 1.37827847532 0)
(-6.18915931882 1.46841317869 0)
(-5.98100521427 1.55333155417 0)
(-5.76652257493 1.63299151065 0)
(-5.5457569146 1.70737237004 0)
(-5.31878588249 1.77663246454 0)
(-5.08581361835 1.84126509535 0)
(-4.84723809773 1.90223205346 0)
(-4.60364776408 1.96104270865 0)
(-4.35574742094 2.01976175792 0)
(-4.10411972932 2.08095203496 0)
(-3.84906434987 2.14746171464 0)
(-3.58995151616 2.2222333493 0)
(-3.32578192925 2.30775357091 0)
(-3.05260778341 2.40588150783 0)
(-2.77029809113 2.5158551828 0)
(-2.46395559016 2.63687222473 0)
(-2.15924440915 2.75721753455 0)
(-1.76703402385 2.88373175421 0)
(-1.55010533706 2.95532238722 0)
(-0.741481827333 3.12339583316 0)
(-2.00877349542 2.93672800513 0)
(3.80639390344 4.97006869193 0)
(-7.33168014171 4.61509737043 0)
(27.4033413379 -10.764951351 0)
(-11.1290349416 -3.64755360911 0)
(-1.04456650739 -7.13628579569 0)
(-2.8461714684 -6.72344986798 0)
(-4.16595353632 -6.01569388213 0)
(-4.53288752383 -5.39331769174 0)
(-4.75839961929 -4.79483693652 0)
(-4.97714064584 -4.25305522266 0)
(-5.17716541553 -3.78752239001 0)
(-5.36844047378 -3.39149715008 0)
(-5.56384902594 -3.0522101035 0)
(-5.76775418782 -2.75845434317 0)
(-5.97931086807 -2.50101334988 0)
(-6.19593424724 -2.27235148306 0)
(-6.4145896087 -2.06648914595 0)
(-6.63221629026 -1.87880557683 0)
(-6.84595801419 -1.70575955163 0)
(-7.05330141199 -1.54462072173 0)
(-7.2521297086 -1.39325271352 0)
(-7.44071801845 -1.24994788356 0)
(-7.61769975827 -1.11330414916 0)
(-7.78202262711 -0.98213454379 0)
(-7.9329032414 -0.855402010833 0)
(-8.06978471706 -0.7321721816 0)
(-8.19229916474 -0.61157878316 0)
(-8.30023623272 -0.492796673363 0)
(-8.39351673486 -0.375019833104 0)
(-8.47217390588 -0.25744052384 0)
(-8.53633343237 -0.139229494704 0)
(-8.58621544039 -0.0195117492514 0)
(-8.6220921079 0.102658755967 0)
(-8.64438737192 0.228338760648 0)
(-8.65340500823 0.358754489153 0)
(-8.6500635837 0.495336594742 0)
(-8.63341039486 0.629532650722 0)
(-8.60194875081 0.746818731379 0)
(-8.55547112948 0.845042165917 0)
(-8.49464822342 0.923744254845 0)
(-8.42055197906 0.983922296209 0)
(-8.33441528632 1.02762427911 0)
(-8.23745153884 1.0577191173 0)
(-8.13081367631 1.07765632815 0)
(-8.01563566305 1.09108770731 0)
(-7.89301902222 1.10148214547 0)
(-7.76395483024 1.11185714698 1.87867246859e-27)
(-7.62925003778 1.1246328863 -1.88883564971e-27)
(-7.48949014208 1.14157757254 0)
(-7.34502849776 1.16382612212 0)
(-7.19599174201 1.19195889816 0)
(-7.04230156346 1.22611933758 0)
(-6.88371428926 1.26614587026 0)
(-6.71987489795 1.31169606567 0)
(-6.55037849626 1.36234720357 0)
(-6.37483104117 1.41766327942 0)
(-6.19290109675 1.47722497236 0)
(-6.00435558948 1.54062488689 0)
(-5.80907490408 1.60743786907 0)
(-5.60704738151 1.67717895383 0)
(-5.39834835669 1.74926774242 0)
(-5.18311495171 1.82301641391 0)
(-4.96153059249 1.89765712873 0)
(-4.73383066016 1.97242272074 0)
(-4.50033502217 2.04667059972 0)
(-4.26149780453 2.12005529693 0)
(-4.01794510265 2.19270159668 0)
(-3.77049724517 2.265356643 0)
(-3.52004110598 2.33951303768 0)
(-3.26751270729 2.41730056027 0)
(-3.01327050382 2.50141747961 0)
(-2.75783680027 2.59454996415 0)
(-2.49879052405 2.69920809064 0)
(-2.23893075793 2.81528574667 0)
(-1.96318776584 2.9427091286 0)
(-1.70609808172 3.06931319227 0)
(-1.35963360017 3.20284691748 0)
(-1.24662600413 3.27490178227 0)
(-0.412293145588 3.45026426743 0)
(-2.17077930348 3.20097760183 0)
(4.7347990307 5.38500741799 0)
(-8.76015915317 4.68173939074 0)
(34.5411629987 -10.5591676627 0)
(-15.3564602556 -5.26640135 0)
(-0.344811700753 -8.77923563838 0)
(-3.03022111566 -7.44338111117 0)
(-4.03966063384 -6.4557304502 0)
(-4.18879476945 -5.6850888137 0)
(-4.33829511678 -5.00616393575 0)
(-4.51578077499 -4.43698830535 0)
(-4.69315425662 -3.97053551488 0)
(-4.87865414346 -3.5837587622 0)
(-5.07949489423 -3.25666227364 0)
(-5.295195876 -2.97457820293 0)
(-5.52213018628 -2.7265468168 0)
(-5.75607227953 -2.50436995983 0)
(-5.99288251024 -2.30207192667 0)
(-6.22873034921 -2.11539521983 0)
(-6.46022984699 -1.94133472138 0)
(-6.68450038471 -1.77776883379 0)
(-6.89916275896 -1.62318946423 0)
(-7.10229774741 -1.47651136607 0)
(-7.29238976175 -1.33694024419 0)
(-7.46826801657 -1.20388416561 0)
(-7.62905112764 -1.07689615938 0)
(-7.77409778494 -0.955638634119 0)
(-7.90296445048 -0.839862423409 0)
(-8.01537003428 -0.729395386421 0)
(-8.11116698118 -0.624137703072 0)
(-8.19031856838 -0.52406062158 0)
(-8.2528802634 -0.429210409617 0)
(-8.29898942301 -0.339710561351 0)
(-8.3288511816 -0.255774881713 0)
(-8.34275391328 -0.177704675497 0)
(-8.34105078299 -0.105923452515 2.36076039248e-27)
(-8.32433962538 -0.04094261607 -2.39484128522e-27)
(-8.29359084059 0.0237429338097 0)
(-8.25059604577 0.0933697902137 0)
(-8.19591776738 0.169065841139 0)
(-8.13001390975 0.251017799783 0)
(-8.05332125616 0.338502650598 0)
(-7.96621545094 0.430102153732 0)
(-7.86899128077 0.524036739507 0)
(-7.76189838695 0.61851815916 0)
(-7.64521862954 0.711997599601 0)
(-7.51932354626 0.80329920441 0)
(-7.38468243058 0.891683082287 0)
(-7.24184177201 0.976853863033 0)
(-7.09139793069 1.05891287969 0)
(-6.93396495992 1.13826516776 0)
(-6.77013477936 1.21550463743 0)
(-6.60043413407 1.29130000009 0)
(-6.42528709958 1.36629697445 0)
(-6.24499073066 1.44104627224 0)
(-6.05970838039 1.5159612474 0)
(-5.86948223275 1.59130442886 0)
(-5.67426315534 1.6671972856 0)
(-5.47395310141 1.74364346026 0)
(-5.26845119236 1.82055927958 0)
(-5.05769461269 1.897798803 0)
(-4.84168476738 1.97517302148 0)
(-4.62049616503 2.05246118582 0)
(-4.39427277755 2.12941925766 0)
(-4.16321846498 2.20581455466 0)
(-3.9276034704 2.28146926063 0)
(-3.68778481801 2.35638302254 0)
(-3.44424814814 2.43086081376 0)
(-3.19766718488 2.50566949372 0)
(-2.94884545976 2.58228380134 0)
(-2.69880881175 2.6627908109 0)
(-2.44829143202 2.74996990456 0)
(-2.19874372855 2.84658081149 0)
(-1.94870922098 2.9553851534 0)
(-1.7038462548 3.07620529978 0)
(-1.44907987775 3.20843857731 0)
(-1.22984657111 3.33842366 0)
(-0.919362556637 3.4737523139 0)
(-0.909309237446 3.53784983095 0)
(-0.0339910133854 3.70816237562 0)
(-2.3660378158 3.38184645893 0)
(5.80467642262 5.72513701075 0)
(-10.2977029606 4.69777338929 0)
(42.249833345 -10.4068123839 0)
(-20.1707710753 -7.13093484007 0)
(0.887400509136 -10.1374862494 0)
(-3.13430984025 -7.88508881548 0)
(-3.74222542633 -6.75341339417 0)
(-3.76587696022 -5.89027365398 0)
(-3.90033813372 -5.17395000905 0)
(-4.07128181327 -4.60619198345 0)
(-4.25154121873 -4.15494545174 0)
(-4.44939138317 -3.78617114816 0)
(-4.66747268831 -3.47566347218 0)
(-4.90227916408 -3.20664222315 0)
(-5.14877753022 -2.96715933531 0)
(-5.40198905591 -2.74881657337 0)
(-5.65730320299 -2.54588211817 0)
(-5.91060934534 -2.35453963762 0)
(-6.15837581151 -2.17228369729 0)
(-6.39765863162 -1.99747977031 0)
(-6.62606213365 -1.82905514021 0)
(-6.84167663262 -1.66628941603 0)
(-7.04301078215 -1.50867604633 0)
(-7.22892651642 -1.3558338484 0)
(-7.39858040326 -1.20745311585 0)
(-7.55137288606 -1.06326410538 0)
(-7.68690561335 -0.923019784197 0)
(-7.80494602171 -0.786486408411 0)
(-7.90539866409 -0.653439633098 0)
(-7.98828277191 -0.523660450957 0)
(-8.05371287361 -0.396937484439 0)
(-8.10189453943 -0.273056282981 0)
(-8.13309199294 -0.151817458092 0)
(-8.14771136689 -0.0329854880482 0)
(-8.14605285595 0.0836007810756 0)
(-8.1290236166 0.19826056316 0)
(-8.09586172963 0.307684472129 0)
(-8.04709777496 0.410558590461 0)
(-7.9832225719 0.506817637287 0)
(-7.90499599585 0.596891434386 0)
(-7.81333242116 0.681555153932 0)
(-7.70921222262 0.761765710759 0)
(-7.59361170251 0.838523227593 0)
(-7.4674605905 0.912774346024 0)
(-7.33163190835 0.985341379814 0)
(-7.18694418217 1.05687648479 0)
(-7.03415658125 1.1278578624 0)
(-6.87395967734 1.19862771833 0)
(-6.70697192093 1.26945009513 0)
(-6.53374238632 1.34056495529 0)
(-6.35475385714 1.41222442638 0)
(-6.17042234928 1.48470516563 0)
(-5.98109336887 1.55829620683 0)
(-5.78703704125 1.63326707969 0)
(-5.5884449524 1.70982463866 0)
(-5.38543190509 1.78807032862 0)
(-5.17804501864 1.86796881637 0)
(-4.9662838995 1.94933074345 0)
(-4.75012883818 2.03182544122 0)
(-4.52957610043 2.11500737494 0)
(-4.30466862811 2.19836470923 0)
(-4.07551672195 2.28137155178 0)
(-3.84230724494 2.36352926338 0)
(-3.6052919636 2.44444095585 0)
(-3.36479082372 2.52381933458 0)
(-3.12117795535 2.60162349718 0)
(-2.87491203122 2.67813498335 0)
(-2.62659180052 2.75408560247 0)
(-2.37699590721 2.83096152925 0)
(-2.12704450993 2.91087744123 0)
(-1.87760612427 2.99676220054 0)
(-1.63074199434 3.09121419287 0)
(-1.38550293385 3.19766702389 0)
(-1.15048263052 3.31529395636 0)
(-0.910790866197 3.44204370144 0)
(-0.724678263016 3.56253501933 0)
(-0.444722316843 3.68392224644 0)
(-0.538655329993 3.72868076424 0)
(0.384703149259 3.86930833501 0)
(-2.60902261685 3.47790508177 0)
(7.08336227506 5.9999116186 0)
(-11.9546416219 4.63945043504 0)
(50.4280045217 -10.3665513753 0)
(-25.5135707461 -9.15474790959 0)
(2.67346364222 -11.1645124837 0)
(-3.26424079294 -8.12277112878 0)
(-3.35356450177 -6.9789697666 0)
(-3.34806516409 -6.05581187316 0)
(-3.4978945927 -5.33035908795 0)
(-3.67546031485 -4.77962128024 0)
(-3.86815539264 -4.3508927058 0)
(-4.08343947698 -4.00384374108 0)
(-4.32032458442 -3.71175976607 0)
(-4.57357690936 -3.45651432061 0)
(-4.83748786718 -3.22572700335 0)
(-5.10673899232 -3.011195508 0)
(-5.37654846354 -2.80769571193 0)
(-5.6427594742 -2.61203726531 0)
(-5.90187305408 -2.42235485233 0)
(-6.15101616972 -2.23762094509 0)
(-6.38787822237 -2.05731111567 0)
(-6.61063485169 -1.88118772006 0)
(-6.8178742037 -1.70916321402 0)
(-7.00852930084 -1.54121883666 0)
(-7.18181892831 -1.37736018044 0)
(-7.3371973812 -1.21759552706 0)
(-7.47431268187 -1.06192807499 0)
(-7.59297101311 -0.910355538551 0)
(-7.69310924005 -0.762875217446 0)
(-7.77476830106 -0.619487660413 0)
(-7.83808154964 -0.480211683036 0)
(-7.8832452213 -0.345074165996 0)
(-7.91054500186 -0.214170429617 0)
(-7.92027157592 -0.0875431994686 0)
(-7.91292633924 0.0344449915552 0)
(-7.88887967942 0.152204113835 0)
(-7.84860826156 0.267624812048 0)
(-7.79270825986 0.381000551351 0)
(-7.72165696561 0.492359951048 0)
(-7.63602105741 0.601507897528 0)
(-7.5364463635 0.708087349462 0)
(-7.42363900445 0.811682993244 0)
(-7.29835606909 0.911929892073 0)
(-7.16140158145 1.00860369436 0)
(-7.01362600844 1.10166975655 0)
(-6.85592186791 1.19128483476 0)
(-6.68920608524 1.27776771456 0)
(-6.51439012348 1.3615597378 0)
(-6.33234688465 1.44318635152 0)
(-6.14388141899 1.52322288792 0)
(-5.94970770731 1.60226512147 0)
(-5.75043227843 1.68090347109 0)
(-5.54654594635 1.75969727034 0)
(-5.33842398713 1.83914720892 0)
(-5.1263341174 1.91966307163 0)
(-4.91045059504 2.00153045164 0)
(-4.69087051858 2.08488392807 0)
(-4.46763748183 2.16967365948 0)
(-4.2407644171 2.25567277688 0)
(-4.01026656684 2.34248134535 0)
(-3.77618544916 2.42957647346 0)
(-3.53861141946 2.51637522005 0)