/*--------------------------------*- C++ -*----------------------------------*\
| =========                 |                                                 |
| \\      /  F ield         | OpenFOAM: The Open Source CFD Toolbox           |
|  \\    /   O peration     | Version:  v1806                                 |
|   \\  /    A nd           | Web:      www.OpenFOAM.com                      |
|    \\/     M anipulation  |                                                 |
\*---------------------------------------------------------------------------*/
FoamFile
{
    version     2.0;
    format      ascii;
    class       volVectorField;
    location    "600";
    object      Ua;
}
// * * * * * * * * * * * * * * * * * * * * * * * * * * * * * * * * * * * * * //

dimensions      [0 1 -1 0 0 0 0];


internalField   nonuniform List<vector> 
6400
(
(-0.677626534118 1.25177633118 0)
(-4.47750359725 5.10995470879 0)
(-7.4186647536 7.72644314382 0)
(-9.45046213832 5.91562269343 0)
(-10.6444482342 3.85633234317 0)
(-10.8944848284 -3.44219312833 0)
(-12.4221532788 -7.03623556866 0)
(-13.3906734705 -10.3288698828 0)
(-14.0930055438 -13.734904396 0)
(-14.6684095383 -17.2260712316 0)
(-15.1536307665 -20.7958014965 0)
(-15.5604071018 -24.4287634157 0)
(-15.8994856697 -28.1078896848 0)
(-16.1818881564 -31.8189653348 0)
(-16.4170046615 -35.55080882 0)
(-16.612306054 -39.2944016003 0)
(-16.7738450607 -43.0424095542 0)
(-16.9066543353 -46.7890284952 0)
(-17.0149313963 -50.529884919 0)
(-17.1021459038 -54.2619197976 0)
(-17.1711436311 -57.9832695257 0)
(-17.2242515815 -61.6931641862 0)
(-17.2633729787 -65.3918435222 0)
(-17.2900679725 -69.0804885008 0)
(-17.3056210722 -72.7611668036 0)
(-17.3110975657 -76.4367922059 0)
(-17.3073912237 -80.1110994096 0)
(-17.2952630207 -83.7886362181 0)
(-17.2753798532 -87.4747733947 0)
(-17.2483379935 -91.1757518062 0)
(-17.2147456409 -94.8987577733 0)
(-17.1752259241 -98.6522130234 0)
(-17.1309077653 -102.446144388 0)
(-17.0826781788 -106.293408992 0)
(-17.0318394865 -110.206329128 0)
(-16.9641766157 -114.182793422 0)
(-16.85686343 -118.148039481 0)
(-16.7049453299 -121.941983923 0)
(-16.5241877564 -125.333044387 0)
(-16.3270223104 -128.288387672 0)
(-16.1214080844 -130.79017012 0)
(-15.9109356678 -132.82734509 0)
(-15.6972127419 -134.39280716 0)
(-15.4813681165 -135.482717255 0)
(-15.2644376654 -136.096293553 0)
(-15.047353594 -136.235587666 0)
(-14.8309457571 -135.905296724 0)
(-14.6159944914 -135.112669219 0)
(-14.4032824488 -133.867492912 0)
(-14.1936269812 -132.182130397 0)
(-13.9879008356 -130.071589296 0)
(-13.7870489862 -127.553619671 0)
(-13.5921025003 -124.648834889 0)
(-13.4041862423 -121.380840503 0)
(-13.2245168704 -117.776351962 0)
(-13.0543873061 -113.865269686 0)
(-12.8951348227 -109.680677628 0)
(-12.7480901055 -105.258722642 0)
(-12.6145066659 -100.638335745 0)
(-12.4954713052 -95.8607562314 0)
(-12.3917990517 -90.9688338668 0)
(-12.3039179048 -86.0060947837 0)
(-12.2317498786 -81.0155796929 0)
(-12.1745978485 -76.0384800029 0)
(-12.1310399996 -71.1126168504 0)
(-12.0988503757 -66.2708291993 0)
(-12.074910468 -61.539316886 0)
(-12.0552038545 -56.936067892 0)
(-12.0346443307 -52.4692757064 0)
(-12.0073631932 -48.1362461431 0)
(-11.9658293724 -43.9217281156 0)
(-11.9030432126 -39.7988769739 0)
(-11.806947412 -35.7250880955 0)
(-11.6756615282 -31.6552393474 0)
(-11.4789170363 -27.5138557593 0)
(-11.2592284853 -23.282075818 0)
(-10.8403705345 -18.7424410681 0)
(-10.5292218565 -14.0787485859 0)
(-8.52357385888 -7.5147776982 0)
(-6.83198550736 -1.08375345308 0)
(-2.42226298729 -2.69524524628 0)
(-2.12813126727 -4.81196050747 0)
(-4.32315333935 -8.18980248923 0)
(-6.22371576541 -6.75308376281 0)
(-8.57892836609 -4.55566068898 0)
(-10.754823217 -1.92312056823 0)
(-12.4988728616 0.426891394352 0)
(-14.0609611312 2.57021709446 0)
(-15.5364674804 4.67683224617 0)
(-16.9343903919 6.81097483762 0)
(-18.2456707895 8.99375109102 0)
(-19.4638469407 11.2333925741 0)
(-20.5880224294 13.5330949534 0)
(-21.6211345803 15.892749534 0)
(-22.5679234091 18.3103035132 0)
(-23.4337960777 20.7828696845 0)
(-24.224346319 23.3073374536 0)
(-24.9451102123 25.8806529884 0)
(-25.6013919929 28.4999834975 0)
(-26.1981446961 31.1628447933 0)
(-26.7399111567 33.8672110356 0)
(-27.2308098217 36.6116016146 0)
(-27.6745466683 39.3951541696 0)
(-28.0744387081 42.2176828671 0)
(-28.433442743 45.0797307414 0)
(-28.7541859924 47.982613929 0)
(-29.0389952314 50.928466505 0)
(-29.289929218 53.9202828315 0)
(-29.5087968773 56.9619721655 0)
(-29.6972118282 60.0584048383 0)
(-29.8565307027 63.215515574 0)
(-29.9880836763 66.440271718 0)
(-30.092565391 69.7409926997 0)
(-30.1728439391 73.1262395247 0)
(-30.233754315 76.6060992559 0)
(-30.3125022043 80.1808318572 0)
(-30.4161824416 83.6231054114 0)
(-30.51421514 86.790016831 0)
(-30.5721879752 89.5255570188 0)
(-30.5815470091 91.8310700633 0)
(-30.5419347053 93.7060866616 0)
(-30.4530284892 95.1508033437 0)
(-30.313546031 96.1676394041 0)
(-30.1219222546 96.7614052314 0)
(-29.8766182122 96.9391909015 0)
(-29.5761056818 96.7103413241 0)
(-29.2188233781 96.0864654517 0)
(-28.8031920197 95.0814241636 0)
(-28.327661825 93.7112984848 0)
(-27.7907675573 91.9943674975 0)
(-27.1911880857 89.9511021785 0)
(-26.5278174057 87.6041775715 0)
(-25.7998524394 84.9784851169 0)
(-25.0069006976 82.1011308582 0)
(-24.1491088672 79.0013871079 0)
(-23.227311115 75.7105716465 0)
(-22.243192954 72.2618155561 0)
(-21.1994618686 68.6896952051 0)
(-20.1000119522 65.0297010377 0)
(-18.9500651417 61.3175398369 0)
(-17.7562695586 57.5882730372 0)
(-16.5267346682 53.875322359 0)
(-15.2709853129 50.2093813136 0)
(-13.9998244576 46.6172945738 0)
(-12.7250968786 43.120967711 0)
(-11.4593749799 39.7363774365 0)
(-10.2155489387 36.4727480044 0)
(-9.00644249938 33.3319439513 0)
(-7.84422446296 30.3082079965 0)
(-6.74033871345 27.3881638769 0)
(-5.70408675651 24.5517344415 0)
(-4.74497064343 21.7727415964 0)
(-3.86492543863 19.0238521306 0)
(-3.07869009309 16.2739651322 0)
(-2.35608406443 13.5198544357 0)
(-1.78749198242 10.7351979513 0)
(-1.10700042705 8.12111542114 0)
(-1.18682943157 5.54465736665 0)
(1.19245682369 5.78729277909 0)
(-3.25840750082 6.67486373047 0)
(-6.05884563672 -6.41589602964 0)
(-4.86620883757 -8.32993599026 0)
(-6.07640812269 -5.10803525161 -1.27506393591e-28)
(-5.98071338593 -3.63199275231 8.01935020804e-29)
(-6.27784166105 -2.81068679138 9.35647018853e-29)
(-6.925600867 -2.70689354509 -7.65930145859e-29)
(-7.77034992209 -2.94782424998 1.29460383134e-28)
(-8.72623176613 -3.29812430706 -1.15164237206e-28)
(-9.70449906156 -3.68970323293 0)
(-10.6399155304 -4.12380055195 0)
(-11.4996052092 -4.61605804515 0)
(-12.2718245287 -5.17926516165 0)
(-12.9550900909 -5.82196141724 0)
(-13.5529295305 -6.54978783671 0)
(-14.0713690223 -7.36614492639 0)
(-14.5174005767 -8.2725199649 0)
(-14.898071736 -9.26889910466 0)
(-15.2200341893 -10.3542340228 0)
(-15.4893499758 -11.5268530483 0)
(-15.711421289 -12.7847834552 0)
(-15.8909853786 -14.1260024909 0)
(-16.0321485559 -15.5486394636 0)
(-16.1384409302 -17.0511411123 0)
(-16.2128790968 -18.6324096096 0)
(-16.2580291881 -20.2919185981 0)
(-16.2760673624 -22.0298146827 0)
(-16.2688352374 -23.8470113266 0)
(-16.2378928219 -25.7452743093 0)
(-16.1845581975 -27.7273304253 0)
(-16.1099646474 -29.7969292769 -2.39421497857e-27)
(-16.0150367292 -31.9590998347 2.39226321064e-27)
(-15.9006412709 -34.2199448646 0)
(-15.7668523713 -36.5879233532 0)
(-15.6127114301 -39.0710902191 0)
(-15.4266340695 -41.6862473637 0)
(-15.1912698355 -44.3429843438 0)
(-14.9461261778 -46.6954945675 0)
(-14.7245942058 -48.6887992217 0)
(-14.5352636386 -50.325752028 0)
(-14.3736947609 -51.6034794753 0)
(-14.2369104516 -52.5238267732 0)
(-14.1248048995 -53.0936865157 0)
(-14.0380391938 -53.3233074917 0)
(-13.9771568632 -53.225615452 0)
(-13.9424945314 -52.8160272672 0)
(-13.934137035 -52.1122259477 0)
(-13.9517919927 -51.1338496939 0)
(-13.9946590353 -49.9021861256 0)
(-14.0613258672 -48.4399136733 0)
(-14.1496806396 -46.7708897437 0)
(-14.2568301734 -44.9199741906 0)
(-14.3790232499 -42.9128755576 0)
(-14.5115836809 -40.7760025022 0)
(-14.6488591794 -38.5362963659 0)
(-14.7841938813 -36.2210169668 0)
(-14.909934712 -33.857454427 0)
(-15.0174838479 -31.4725460401 0)
(-15.0974104674 -29.0923885367 0)
(-15.1396333809 -26.7416514105 0)
(-15.1336824147 -24.442915034 0)
(-15.0690387141 -22.2159735777 0)
(-14.9355452711 -20.0771569991 0)
(-14.7238656273 -18.0387327682 0)
(-14.4259616746 -16.1084494201 0)
(-14.0355428039 -14.2892751627 0)
(-13.5484617449 -12.5793809183 0)
(-12.9629647923 -10.9723847911 0)
(-12.279902379 -9.45792702014 0)
(-11.5025195841 -8.02253634103 0)
(-10.6368017682 -6.65112071793 0)
(-9.68969840798 -5.32846187481 0)
(-8.67252015939 -4.04312760022 0)
(-7.58921117216 -2.78788545508 0)
(-6.46571377858 -1.57460395456 0)
(-5.26222610348 -0.411062402038 0)
(-4.12789719152 0.612614471315 0)
(-2.66195028675 1.61473588625 0)
(-2.31745202431 2.20638978906 0)
(2.13093450167 5.29412290654 0)
(-4.68996771771 7.08046592751 0)
(-5.98828864776 -10.300002266 0)
(-7.6932035741 -3.97130918365 0)
(-5.34239414412 -2.83562154302 0)
(-4.26495127254 -3.73866111001 0)
(-4.99583916609 -4.23009825554 0)
(-6.19081547392 -4.37292460557 0)
(-7.43012329609 -4.30554662075 0)
(-8.64821091744 -4.0590400677 0)
(-9.79244199137 -3.67833690992 0)
(-10.8300037464 -3.21505104907 0)
(-11.7587119337 -2.70502108138 0)
(-12.5897476311 -2.16742761902 0)
(-13.3358357446 -1.61088142313 0)
(-14.0085072596 -1.03788588125 0)
(-14.6179705858 -0.447338494052 0)
(-15.1729882311 0.163929150274 0)
(-15.6807959947 0.800113658721 0)
(-16.1472370448 1.46576290517 0)
(-16.5770067053 2.16537817304 0)
(-16.9738892389 2.90321587443 0)
(-17.340951615 3.68322010678 0)
(-17.6806997332 4.50903683856 0)
(-17.9952057565 5.38407758302 0)
(-18.2862103532 6.31161294545 0)
(-18.5552039819 7.29488350684 0)
(-18.8034888281 8.33722031842 0)
(-19.0322311201 9.44217220799 0)
(-19.2424881627 10.6136347248 0)
(-19.4352635831 11.8559925791 0)
(-19.6114352157 13.1742475301 0)
(-19.7719898757 14.5742161667 0)
(-19.9172926662 16.0625925909 0)
(-20.0491517147 17.6475111708 0)
(-20.1659609294 19.3382856024 0)
(-20.281798464 21.1490693491 0)
(-20.3786663746 22.8748251364 0)
(-20.4224713598 24.3374331865 0)
(-20.4137564108 25.5318977987 0)
(-20.3604675179 26.4494124016 0)
(-20.2630485476 27.0901405664 0)
(-20.1199147482 27.4619989962 0)
(-19.9313170886 27.5777164272 0)
(-19.6987604654 27.4536744511 0)
(-19.4240646181 27.1092820184 0)
(-19.1092439812 26.5662249053 0)
(-18.7566779115 25.8476961614 4.73065265922e-27)
(-18.3692114421 24.9777311415 -4.77432742473e-27)
(-17.9501804429 23.980649532 0)
(-17.5034178906 22.8805806809 0)
(-17.0332526704 21.7010643037 0)
(-16.5444880199 20.4647240091 0)
(-16.0423491321 19.1930037926 0)
(-15.5323939478 17.9059512498 0)
(-15.0203820453 16.622027503 0)
(-14.5120962856 15.3579264772 0)
(-14.0131134673 14.1283902994 0)
(-13.5285247493 12.9460177893 0)
(-13.0626131354 11.8210727248 3.06897254567e-27)
(-12.6185043711 10.7613116742 -3.14565415945e-27)
(-12.197816928 9.77185930667 0)
(-11.8003458706 8.85516564484 0)
(-11.4238213367 8.01107654091 0)
(-11.0637815758 7.23704436172 0)
(-10.7135986697 6.52848891923 0)
(-10.3646693762 5.87931139649 0)
(-10.0067991086 5.28253994565 0)
(-9.62869622446 4.73110449396 0)
(-9.21872639041 4.2186650747 0)
(-8.76539381546 3.74063773314 0)
(-8.25884796725 3.29506420648 0)
(-7.68973166877 2.88425997498 0)
(-7.05536377151 2.51468423823 0)
(-6.34527128186 2.20216120361 0)
(-5.58414133264 1.96105047796 0)
(-4.70970093853 1.83745021998 0)
(-3.93109808503 1.80611386661 0)
(-2.66880957413 2.08522849255 0)
(-2.95643102349 2.24494992738 0)
(2.60904611311 5.41854306083 0)
(-6.40848635069 6.7205713664 0)
(12.446568279 -19.7411806378 0)
(-4.31477188238 -3.76242705739 0)
(-2.21838805754 -3.76234701642 0)
(-2.6443030628 -5.17577719728 0)
(-4.72464706693 -5.59357316362 0)
(-6.42081702855 -5.59403002365 0)
(-7.7190893814 -5.40114634426 0)
(-8.82482398566 -5.07107437396 0)
(-9.77628892559 -4.67324950577 0)
(-10.5854788523 -4.26788571232 0)
(-11.2801084407 -3.88975385069 0)
(-11.8873244863 -3.5555437776 0)
(-12.425930387 -3.27237543517 0)
(-12.9083375276 -3.0423776462 0)
(-13.3431979012 -2.86512995931 0)
(-13.7366512255 -2.73912416202 0)
(-14.0929744114 -2.66259917021 0)
(-14.4151213415 -2.63396407196 0)
(-14.7051720054 -2.65198641778 0)
(-14.9646484605 -2.71585950476 0)
(-15.1947149671 -2.82520984373 0)
(-15.3963025929 -2.98008114989 0)
(-15.570187628 -3.18091462189 0)
(-15.717040589 -3.42853784812 0)
(-15.8374549856 -3.72416631941 0)
(-15.9319645546 -4.06942160429 0)
(-16.0010490247 -4.46636351181 0)
(-16.04514434 -4.91754502015 0)
(-16.0646220699 -5.42606762661 0)
(-16.059840542 -5.99570228302 0)
(-16.0309837431 -6.63088197064 -3.37071776455e-27)
(-15.978476914 -7.33710596083 3.38338740914e-27)
(-15.9017115398 -8.12013420286 0)
(-15.802113258 -8.98874562618 0)
(-15.6737942488 -9.94349050122 0)
(-15.5393515041 -10.7790991665 0)
(-15.4152540915 -11.442061154 0)
(-15.3041673161 -11.9174977719 0)
(-15.2074573926 -12.2039819204 0)
(-15.1242460853 -12.3074954836 0)
(-15.0519467394 -12.2377129402 0)
(-14.9880460773 -12.0080202944 0)
(-14.930323138 -11.6352787414 0)
(-14.8763444112 -11.1387739273 0)
(-14.8232510348 -10.539076441 0)
(-14.7678213602 -9.85710302878 0)
(-14.7065602407 -9.11334467745 0)
(-14.6357564947 -8.32722479142 0)
(-14.5515500801 -7.51659687903 0)
(-14.4500340059 -6.69738880971 0)
(-14.3273886895 -5.88338574449 0)
(-14.1800403245 -5.08613145087 0)
(-14.0048368996 -4.3149272825 0)
(-13.7992345882 -3.57690561322 0)
(-13.5614827638 -2.87715951575 0)
(-13.2907905886 -2.21891188363 0)
(-12.9874529765 -1.60371577522 0)
(-12.6529105167 -1.03168038154 0)
(-12.2897170869 -0.501723544357 0)
(-11.9013934272 -0.0118501235474 0)
(-11.4921538699 0.44054467124 0)
(-11.0665101338 0.858355741685 0)
(-10.6287726851 1.24444463634 0)
(-10.1824971602 1.60133195138 0)
(-9.72992298376 1.93092765125 0)
(-9.27150683251 2.23431046957 0)
(-8.8055324152 2.51158824898 0)
(-8.32809363836 2.76178943355 0)
(-7.83286627202 2.98291690243 0)
(-7.3124489574 3.17182457282 0)
(-6.75656167446 3.32500663392 0)
(-6.16036753051 3.43753646381 0)
(-5.50623066841 3.50890896308 0)
(-4.82262178728 3.5322099227 0)
(-4.02412105007 3.53680788347 0)
(-3.39204389394 3.4788062812 0)
(-2.15483072917 3.60682573844 0)
(-3.02287613748 3.43475474193 0)
(3.6643002621 6.4434133749 0)
(-8.13090261976 6.87356367447 0)
(23.0525639198 -18.8064572507 0)
(-7.03170466711 -2.91253054765 0)
(-1.91459143993 -5.8183403897 0)
(-3.11482425903 -7.26759000395 0)
(-5.65770783265 -7.32084970138 0)
(-7.18724347853 -7.02254427335 0)
(-8.19351041687 -6.55026934574 0)
(-9.01879884613 -5.97545938506 0)
(-9.71411966701 -5.38010863949 0)
(-10.3025533306 -4.81226218424 0)
(-10.8188423509 -4.28924867273 0)
(-11.2891240975 -3.81410716335 0)
(-11.7274502585 -3.38401072324 0)
(-12.1408763706 -2.99348762734 0)
(-12.533077435 -2.6360820191 0)
(-12.9058391236 -2.3053232224 0)
(-13.2597832942 -1.99516703913 0)
(-13.5948864454 -1.7001207965 0)
(-13.9108455498 -1.41523309341 0)
(-14.2072946241 -1.13603498029 0)
(-14.4839146412 -0.858464683128 0)
(-14.74048299 -0.578787953526 0)
(-14.9768921227 -0.293521205891 0)
(-15.1931526238 0.000641397027234 0)
(-15.3893888842 0.306897010316 0)
(-15.5658321966 0.628403223835 0)
(-15.7228137431 0.968347651289 0)
(-15.8607597259 1.33002694211 0)
(-15.9801853798 1.71692348468 0)
(-16.0817010733 2.13282713218 0)
(-16.1659940156 2.58188461553 0)
(-16.2339338736 3.06893735771 0)
(-16.2864315216 3.599134963 0)
(-16.325246458 4.17976497886 0)
(-16.34929822 4.79721725457 0)
(-16.3426739509 5.32173103728 0)
(-16.3013735379 5.74129115098 0)
(-16.2261638674 6.04882075041 0)
(-16.1191794524 6.24258037883 0)
(-15.9826744943 6.32598354691 0)
(-15.8186124962 6.3077484889 0)
(-15.6292056792 6.20056668784 0)
(-15.4172181908 6.01941411525 0)
(-15.185760689 5.78031619785 0)
(-14.9380280859 5.49942568673 0)
(-14.6771671739 5.19221679631 0)
(-14.4061881688 4.87280995873 0)
(-14.127852391 4.55348519785 0)
(-13.8445451215 4.24439471497 0)
(-13.5581588777 3.95345144488 0)
(-13.2699990061 3.68636583933 0)
(-12.9807169464 3.44680162016 0)
(-12.6902783911 3.23662226072 0)
(-12.3979754393 3.05619822853 0)
(-12.1024909241 2.9047492271 0)
(-11.8020195218 2.78069729977 0)
(-11.4944448394 2.68201204021 0)
(-11.1775636175 2.60653002479 0)
(-10.8493381527 2.55223423308 0)
(-10.5081470564 2.5174783484 0)
(-10.1529944298 2.50114573142 0)
(-9.78363425899 2.50273055354 0)
(-9.40056590278 2.52233983179 0)
(-9.00487902872 2.56061174263 0)
(-8.59792417656 2.61856630806 0)
(-8.18087626612 2.69738067776 0)
(-7.75412462936 2.79814680575 0)
(-7.31687283428 2.92151516598 0)
(-6.86623434294 3.0674038142 0)
(-6.39813093102 3.23431036636 0)
(-5.90408010478 3.41935121671 0)
(-5.38083160391 3.61570414396 0)
(-4.80610123947 3.8171778695 0)
(-4.21350431244 4.00329075823 0)
(-3.4869474026 4.18490430493 0)
(-2.98055930584 4.27946726459 0)
(-1.69392119849 4.52734711687 0)
(-3.11979030067 4.32024655352 0)
(4.94399745323 7.48760217261 0)
(-10.0947874053 7.20479162281 0)
(33.6108127546 -18.6097584162 0)
(-11.9507460576 -3.88012542126 0)
(-2.11506700919 -8.50354154978 0)
(-3.96252007771 -9.14210474356 0)
(-6.44000299895 -8.61258289286 0)
(-7.51492269038 -7.97054182422 0)
(-8.16101501692 -7.25458680898 0)
(-8.71695210333 -6.52740219733 0)
(-9.19978578225 -5.85427125057 0)
(-9.62696580831 -5.25585920238 0)
(-10.0266414586 -4.72991167675 1.74756433312e-27)
(-10.4150131978 -4.26879052282 -1.72374857344e-27)
(-10.7973300571 -3.86414380719 0)
(-11.1739457782 -3.5078696795 0)
(-11.5433614874 -3.19272393251 0)
(-11.9032745598 -2.91264999452 0)
(-12.2510761 -2.66278393453 0)
(-12.584189556 -2.43930425787 0)
(-12.9002745811 -2.23925909412 0)
(-13.1973158868 -2.06041595775 0)
(-13.4736401973 -1.90113850008 0)
(-13.7278977367 -1.76028895534 0)
(-13.959029164 -1.63715371523 0)
(-14.1662284364 -1.53139013532 0)
(-14.3489065321 -1.44299068431 0)
(-14.5066587301 -1.37226238252 0)
(-14.6392360105 -1.3198181318 0)
(-14.7465212128 -1.28658109396 0)
(-14.8285095601 -1.27379606742 0)
(-14.8852888829 -1.28306286157 0)
(-14.9170398223 -1.31635527422 0)
(-14.9239552172 -1.37613285995 3.78896917279e-27)
(-14.9064026211 -1.4653078365 -3.82216327549e-27)
(-14.8643351959 -1.58773863555 0)
(-14.8009217486 -1.7199365596 0)
(-14.7276320951 -1.80387665823 0)
(-14.6467499221 -1.83146786569 0)
(-14.5589672738 -1.79903108093 0)
(-14.4647584726 -1.70751266111 0)
(-14.3639923995 -1.56185232603 0)
(-14.2556677288 -1.36966057702 0)
(-14.1382583389 -1.14009316474 0)
(-14.0101494792 -0.883067480852 0)
(-13.8697999324 -0.608516681502 0)
(-13.7157639488 -0.325667131862 0)
(-13.5467462924 -0.0424829337237 0)
(-13.3616938318 0.234662970876 0)
(-13.1598708612 0.501115028367 0)
(-12.9408990693 0.753894779231 0)
(-12.7047671732 0.991526927457 0)
(-12.4518138079 1.21376654181 0)
(-12.1826827976 1.42126880698 0)
(-11.8982514923 1.61524135426 0)
(-11.5995375113 1.79711658543 0)
(-11.2875933269 1.9682735139 0)
(-10.9634017291 2.12983332454 0)
(-10.6277878898 2.28254353264 0)
(-10.2813653365 2.42675857167 0)
(-9.92453070555 2.56251486435 0)
(-9.55751664294 2.68968768309 0)
(-9.180498499 2.80821138427 0)
(-8.79373812842 2.91832929452 0)
(-8.39772394766 3.02084355331 0)
(-7.99326950413 3.11731720192 0)
(-7.5814934834 3.21021294955 0)
(-7.16370375332 3.30289122991 0)
(-6.74100990195 3.39955567111 0)
(-6.314080137 3.50492973829 0)
(-5.88209015719 3.62394633099 0)
(-5.44368143519 3.76089707635 0)
(-4.9925993491 3.91925675269 0)
(-4.52902711887 4.09840035605 0)
(-4.02832906544 4.29789034517 0)
(-3.53342307607 4.4994691637 0)
(-2.89584937312 4.71597499667 0)
(-2.55192103786 4.84888492109 0)
(-1.23144064579 5.1546728849 0)
(-3.33061717125 4.90224653241 0)
(6.32760129334 8.33354347646 0)
(-12.2901526531 7.44687397177 0)
(44.5370912717 -18.0979226277 0)
(-17.9580229328 -5.66675256905 0)
(-1.70379726733 -11.3347127457 0)
(-4.4955968418 -10.751957174 0)
(-6.67377394349 -9.6609502745 0)
(-7.30251940861 -8.72107758794 0)
(-7.70823161036 -7.81550522586 0)
(-8.11392589467 -6.98837843097 0)
(-8.49242865129 -6.27096913887 0)
(-8.85495101604 -5.65396103833 0)
(-9.2205507146 -5.11892967551 0)
(-9.59575936517 -4.65016812059 0)
(-9.97925136178 -4.23489925956 0)
(-10.3671909236 -3.86255576149 0)
(-10.7551373211 -3.52460281487 0)
(-11.1386076417 -3.21432961699 0)
(-11.5133796407 -2.92650430853 0)
(-11.8756881228 -2.65702023422 0)
(-12.2223121023 -2.40260621773 0)
(-12.5505814508 -2.16060593356 0)
(-12.8583402727 -1.9288126809 0)
(-13.1438923653 -1.70534618422 0)
(-13.4059427481 -1.48856176079 0)
(-13.6435423461 -1.27698274818 0)
(-13.8560390461 -1.06924926574 0)
(-14.0430369069 -0.864076293994 0)
(-14.2043618803 -0.660217347804 0)
(-14.3400388124 -0.456428086303 0)
(-14.4502633926 -0.251429628663 0)
(-14.5354131399 -0.0438654322673 0)
(-14.595969421 0.167751472455 0)
(-14.632707521 0.385087650614 0)
(-14.6461494464 0.610152890994 0)
(-14.6379405495 0.845143284042 0)
(-14.6060883063 1.07189372676 0)
(-14.548348002 1.26860236998 0)
(-14.4645805895 1.43204576757 0)
(-14.3561158925 1.56192573634 0)
(-14.224953927 1.66038558759 0)
(-14.0732965273 1.73133780648 0)
(-13.9032691208 1.78001011412 0)
(-13.7168892129 1.81243982217 0)
(-13.5161228131 1.83480497917 0)
(-13.3028390858 1.85280934635 0)
(-13.0786820477 1.87128091512 3.42943108323e-27)
(-12.8449641449 1.89397526594 -3.44961192313e-27)
(-12.6026188534 1.92353190293 0)
(-12.352194054 1.96155029906 0)
(-12.0938713971 2.00875635979 0)
(-11.8275115518 2.06521952305 0)
(-11.5527253864 2.13057919255 0)
(-11.2689640494 2.20424596054 0)
(-10.9756166906 2.2855548805 0)
(-10.6721035321 2.37385843884 0)
(-10.3579527755 2.46855777987 0)
(-10.0328517853 2.56908029189 0)
(-9.696667232 2.67482036196 0)
(-9.34943604227 2.78506589669 0)
(-8.99133561659 2.89894109334 0)
(-8.62265235325 3.01538603531 0)
(-8.24376470093 3.13320931657 0)
(-7.85516335015 3.25121043767 0)
(-7.45750152842 3.36839404377 0)
(-7.05168066896 3.48422091576 0)
(-6.63889216008 3.59892417678 0)
(-6.22066148129 3.71369749781 0)
(-5.79862540846 3.83095926371 0)
(-5.37451424767 3.95419021679 0)
(-4.94914131932 4.08780522165 0)
(-4.52367793827 4.23628669862 0)
(-4.09437451439 4.40401446423 0)
(-3.66625323598 4.59143313882 0)
(-3.2144416576 4.79935665491 0)
(-2.79646579749 5.00879905278 0)
(-2.23290877871 5.23422986382 0)
(-2.05944563823 5.36436364118 0)
(-0.697784429638 5.67940369944 0)
(-3.60620408909 5.32351279204 0)
(7.86757549276 9.02318222114 0)
(-14.6612079706 7.58321560723 0)
(56.377042082 -17.7549896465 0)
(-24.988662025 -8.19892233042 0)
(-0.54758430812 -13.9917428427 0)
(-4.80189129433 -11.9121685638 0)
(-6.50114559046 -10.3841766642 0)
(-6.77952574198 -9.22566404181 0)
(-7.06953114945 -8.20175077332 0)
(-7.41370426853 -7.33474936934 0)
(-7.75652504739 -6.61567436534 0)
(-8.107641508 -6.01090819534 0)
(-8.47811009882 -5.491945229 0)
(-8.86750047967 -5.03846151821 0)
(-9.27067909912 -4.6353158193 0)
(-9.68163677551 -4.27100987626 0)
(-10.0944150984 -3.93699452154 0)
(-10.50339655 -3.62705035319 0)
(-10.9035144076 -3.33669383476 0)
(-11.2903685591 -3.06269131875 0)
(-11.6602464899 -2.80269724342 0)
(-12.0100861343 -2.55499535438 0)
(-12.3374117251 -2.31831783489 0)
(-12.6402607952 -2.09172258603 0)
(-12.9171123345 -1.87451272349 0)
(-13.1668213374 -1.66618597335 0)
(-13.3885622975 -1.46640434193 0)
(-13.5817817319 -1.27497664081 0)
(-13.746159971 -1.09185052194 0)
(-13.8815799802 -0.917107361587 0)
(-13.9881042225 -0.750967936845 0)
(-14.0659562661 -0.593785747008 0)
(-14.1155084936 -0.446080741926 0)
(-14.1372866227 -0.30848733726 0)
(-14.1319814974 -0.181914820746 4.27525787025e-27)
(-14.1007162176 -0.0671692345202 -4.33883499571e-27)
(-14.0453890427 0.0486477529855 0)
(-13.9689317945 0.172770007134 0)
(-13.8723125488 0.306760984246 0)
(-13.7563581201 0.450599233135 0)
(-13.6218704756 0.602747318375 0)
(-13.4695275215 0.760581148344 0)
(-13.2998608089 0.921000858654 0)
(-13.1133434201 1.08101268678 0)
(-12.9105220985 1.23811350602 0)
(-12.6920966307 1.3904873312 0)
(-12.4589210129 1.53708213842 0)
(-12.2119652672 1.67759121243 0)
(-11.9522674011 1.81234444737 0)
(-11.6808765934 1.94213596704 0)
(-11.3987856563 2.0680281045 0)
(-11.1068618699 2.19116673996 0)
(-10.8057901055 2.31263017324 0)
(-10.4960394271 2.43332326277 0)
(-10.177859464 2.55391960581 0)
(-9.85130792161 2.6748481744 0)
(-9.51630534915 2.79631328176 0)
(-9.17270760781 2.91833525663 0)
(-8.82038191682 3.04079672714 0)
(-8.45927318894 3.16347954067 0)
(-8.08944523507 3.28609728477 0)
(-7.71110053107 3.40830099553 0)
(-7.32457311816 3.52971392767 0)
(-6.93032952854 3.64995965162 0)
(-6.5289679722 3.76878542792 0)
(-6.12127140257 3.88618545895 0)
(-5.70824078512 4.00272731914 0)
(-5.29120625749 4.11964088239 0)
(-4.87171310144 4.23936753965 0)
(-4.45166204154 4.36532097985 0)
(-4.032477966 4.50206636192 0)
(-3.61685054899 4.65425103572 0)
(-3.20258913337 4.82661113128 0)
(-2.79931368464 5.0195584726 0)
(-2.38197514829 5.23331938063 0)
(-2.02572338501 5.44643661213 0)
(-1.51984777176 5.67301444395 0)
(-1.51445619039 5.78749564786 0)
(-0.0850454518866 6.092678795 0)
(-3.93629243844 5.60545807965 0)
(9.63717389075 9.59458762379 0)
(-17.213479914 7.63817417962 0)
(69.1191732457 -17.5254096235 0)
(-32.9755349113 -11.1632852528 0)
(1.49428595721 -16.2004173557 0)
(-4.97336592348 -12.6340115988 0)
(-6.04338529876 -10.8981207147 0)
(-6.12203652553 -9.61135816896 0)
(-6.39635280992 -8.53399925908 0)
(-6.73310955518 -7.66824294412 0)
(-7.07871502524 -6.96862325904 0)
(-7.44534780201 -6.38644245108 0)
(-7.83816158366 -5.88806335404 0)
(-8.25276210401 -5.45045601331 0)
(-8.68232174253 -5.05699373986 0)
(-9.11990271965 -4.69570127833 0)
(-9.55886683287 -4.35818931529 0)
(-9.99310354116 -4.03871513554 0)
(-10.4172117611 -3.73339972178 0)
(-10.8265715624 -3.43963552609 0)
(-11.217328327 -3.15566111034 0)
(-11.586331612 -2.88026511811 0)
(-11.9310559034 -2.6125871446 0)
(-12.2495177682 -2.35198876913 0)
(-12.5401976372 -2.09797361809 0)
(-12.8019702711 -1.85013964557 0)
(-13.0340460059 -1.60815186378 0)
(-13.2359217291 -1.37172575466 0)
(-13.4073425845 -1.14061812003 0)
(-13.5482699792 -0.914615160741 0)
(-13.6588593501 -0.693531977745 0)
(-13.7394453122 -0.477181351086 0)
(-13.7905167548 -0.265411982174 0)
(-13.8127852177 -0.0579667491733 0)
(-13.8069487195 0.145204059369 0)
(-13.7744094851 0.344650428992 0)
(-13.7141033139 0.533859725034 0)
(-13.6270070959 0.711149029577 0)
(-13.5141629365 0.876508907894 0)
(-13.377006836 1.03081366865 0)
(-13.2171958166 1.17549656528 0)
(-13.0364619285 1.31225002398 0)
(-12.8364954626 1.44279759555 0)
(-12.6188855044 1.56873302286 0)
(-12.3851117657 1.69140430397 0)
(-12.1365491555 1.81185218566 0)
(-11.8744610455 1.93082471166 0)
(-11.5999894333 2.04885578361 0)
(-11.3141547441 2.1663678469 0)
(-11.0178627709 2.28376158664 0)
(-10.7119092288 2.4014721184 0)
(-10.3969770665 2.51998377732 0)
(-10.0736280417 2.63980479176 0)
(-9.74229296847 2.76141036901 0)
(-9.40326678017 2.88516885641 0)
(-9.0567142939 3.01127129785 0)
(-8.7026922041 3.13967811765 0)
(-8.34118871008 3.27009898812 0)
(-7.97217653812 3.40201001002 0)
(-7.59567607624 3.53469284074 0)
(-7.21180514779 3.66732660603 0)
(-6.82082671065 3.79903198512 0)
(-6.42315297841 3.92899853011 0)
(-6.01935577989 4.056510924 0)
(-5.61014870801 4.18112967807 0)
(-5.19639603991 4.30266934882 0)
(-4.7791297569 4.42170062574 0)
(-4.3596097651 4.53929954662 0)
(-3.93937634825 4.65801961806 0)
(-3.52026902207 4.78123261716 0)
(-3.10392144512 4.91377184163 0)
(-2.69407251055 5.06026759213 0)
(-2.28935271438 5.22595828485 0)
(-1.90383587255 5.41109365786 0)
(-1.5125918913 5.61404809456 0)
(-1.21074031427 5.81028485734 0)
(-0.753495971704 6.01394033684 0)
(-0.917620892813 6.09269134643 0)
(0.599243252052 6.35141091377 0)
(-4.34717628945 5.74809812979 0)
(11.7397312508 10.0509074158 0)
(-19.9684922357 7.58723500164 0)
(82.6031611526 -17.4658909322 0)
(-41.8183488613 -14.3910682925 0)
(4.45372238128 -17.86450512 0)
(-5.1860333796 -13.023858001 0)
(-5.43518225302 -11.3019675337 0)
(-5.469331675 -9.936892053 0)
(-5.77536510289 -8.84644101886 0)
(-6.12204644551 -8.00300906309 0)
(-6.48292627575 -7.33223174549 0)
(-6.87171238385 -6.77790104265 0)
(-7.28895295359 -6.30352348796 0)
(-7.72811062762 -5.88406397256 0)
(-8.181537844 -5.50191700094 0)
(-8.64175959457 -5.14503238815 0)
(-9.10173919499 -4.80548539049 0)
(-9.55512089205 -4.4782620492 0)
(-9.99638309946 -4.16031560654 0)
(-10.4208677151 -3.84988107255 0)
(-10.8247318912 -3.5459961362 0)
(-11.2048654268 -3.24817878805 0)
(-11.558797489 -2.95622050806 0)
(-11.8846049317 -2.67006139452 0)
(-12.1808288426 -2.3897204176 0)
(-12.4464019141 -2.11526092389 0)
(-12.6805882811 -1.84677716682 0)
(-12.8829324804 -1.58439171831 0)
(-13.0532226532 -1.32825987329 0)
(-13.1914508268 -1.07857050221 0)
(-13.2978069415 -0.835562660536 0)
(-13.3726135775 -0.599499110986 0)
(-13.4164225044 -0.370755814074 0)
(-13.4297320414 -0.14960479116 0)
(-13.4136911936 0.0631571321253 0)
(-13.3686156195 0.268360987728 0)
(-13.2960519923 0.469127745776 0)
(-13.1968443165 0.665769817185 0)
(-13.0719547365 0.858212855025 0)
(-12.9224722623 1.04602996378 0)
(-12.7495846171 1.22857525297 0)
(-12.5545592294 1.40515691925 0)
(-12.3387307314 1.57521552164 0)
(-12.10349521 1.73846082004 0)
(-11.8503103018 1.89493151847 0)
(-11.5806861622 2.04497925924 0)
(-11.2961545067 2.18920961877 0)
(-10.9982207873 2.32841300943 0)
(-10.6883137467 2.46350140336 0)
(-10.3677416872 2.59545515515 0)
(-10.0376578879 2.72527971474 0)
(-9.69903612241 2.85396818563 0)
(-9.35265759107 2.9824635384 0)
(-8.99910983107 3.11161367432 0)
(-8.63879873007 3.24211464332 0)
(-8.27197152813 3.37445481781 0)
(-7.8987520438 3.50885726772 0)
(-7.51918419678 3.64524503852 0)
(-7.13327983523 3.78324241987 0)
(-6.74108092374 3.92217052753 0)
(-6.34269544149 4.06117842867 0)
(-5.93836302531 4.19922810113 0)
(-5.52846463335 4.3353362804 0)
(-5.11353849819 4.46849905107 0)