/*--------------------------------*- C++ -*----------------------------------*\
| =========                 |                                                 |
| \\      /  F ield         | OpenFOAM: The Open Source CFD Toolbox           |
|  \\    /   O peration     | Version:  v1806                                 |
|   \\  /    A nd           | Web:      www.OpenFOAM.com                      |
|    \\/     M anipulation  |                                                 |
\*---------------------------------------------------------------------------*/
FoamFile
{
    version     2.0;
    format      ascii;
    class       volScalarField;
    location    "300";
    object      p;
}
// * * * * * * * * * * * * * * * * * * * * * * * * * * * * * * * * * * * * * //

dimensions      [0 2 -2 0 0 0 0];


internalField   nonuniform List<scalar> 
6400
(
0.213290185457
0.213031089503
0.212590850885
0.212345641447
0.212085117092
0.211493538356
0.210235828535
0.208405837002
0.206059705827
0.203285766984
0.200186285353
0.196866509629
0.193426283039
0.189954623133
0.186526809582
0.183203427028
0.180030780804
0.177042180527
0.174259680657
0.171695987488
0.16935633214
0.167240196974
0.165342833308
0.163656554098
0.162171803924
0.160878027942
0.159764363919
0.158820185092
0.158035518635
0.157401362477
0.156909916941
0.156554742819
0.156330865045
0.156234861848
0.156265011357
0.156421524206
0.156706732823
0.157125054647
0.157681698928
0.158380643208
0.159226530097
0.160226031366
0.161386222849
0.162714177687
0.164216884861
0.165901034816
0.167772753552
0.169837291878
0.172098660315
0.174559199251
0.177219075041
0.180075704528
0.183123120493
0.186351308625
0.189745558917
0.193285890313
0.196946611652
0.200696090971
0.20449680494
0.208305744066
0.212075239287
0.21575426111
0.219290211538
0.222631203405
0.225728777052
0.228540942852
0.231035317968
0.233191962868
0.235005461834
0.236485656622
0.237656632005
0.238553911431
0.239219944366
0.239699163713
0.240033042777
0.240257163852
0.240397489207
0.240470142354
0.240489401977
0.240483597833
0.213368556783
0.213108547613
0.212789329264
0.212345218323
0.212043844213
0.211428434483
0.210142050188
0.208264017652
0.205861040146
0.203031469834
0.199882979764
0.196523877159
0.193055271324
0.189566154644
0.18613091767
0.182808755903
0.179644365986
0.176669432805
0.173904496227
0.171360930397
0.169042841659
0.166948796904
0.165073321858
0.163408170887
0.161943366821
0.160668046079
0.159571124659
0.158641821525
0.157870057968
0.157246759723
0.156764074169
0.156415522394
0.15619608906
0.156102203747
0.156131724864
0.15628431458
0.156562364774
0.156971422254
0.157517465958
0.158205651984
0.159041291887
0.160029919564
0.161177891037
0.162492084803
0.163979441326
0.165646640212
0.167499821211
0.169544267627
0.171784070735
0.174221707045
0.176857566606
0.179689375372
0.182711582327
0.185914680077
0.189284567982
0.192801949602
0.196441901054
0.200173615605
0.203960468179
0.207760394512
0.211526702743
0.215209283568
0.218756314123
0.22211641359
0.225241272988
0.228088558197
0.230624947036
0.232828811361
0.234692362877
0.236222607666
0.237440720424
0.238379910666
0.239081024394
0.239588306496
0.239943131446
0.240182895956
0.240336884443
0.24042492551
0.240461277275
0.240465263725
0.213973437386
0.213459439215
0.212986919498
0.212446638816
0.211759105485
0.210744740041
0.2092045832
0.207141016421
0.204604276904
0.201685946735
0.198489068369
0.195116925094
0.191664955414
0.188216196774
0.184839227613
0.181587907696
0.17850228885
0.175610190457
0.172929069716
0.170467935289
0.168229153989
0.166210068456
0.164404394311
0.162803391056
0.161396826597
0.16017375442
0.159123129919
0.158234292941
0.157497340195
0.156903407563
0.156444864797
0.156115492986
0.15591051799
0.15582638859
0.155860663669
0.156013280091
0.156289485846
0.156695980893
0.157235834322
0.157912845441
0.158733316774
0.15970378662
0.160831171758
0.162122603025
0.163585172947
0.16522568441
0.167050393761
0.169064739989
0.171273029999
0.173678064627
0.176280678244
0.179079193673
0.182068790956
0.185240828411
0.188582152761
0.192074477971
0.195693900394
0.199410644619
0.203189096737
0.206988183053
0.210762112656
0.2144615412
0.218035173436
0.221431833738
0.224602944901
0.227505221946
0.230103640243
0.23237402295
0.234305454296
0.235901634545
0.237180444186
0.238172832551
0.238917457046
0.239459223051
0.239839051116
0.240096422412
0.240264785839
0.240367928592
0.240420958565
0.240434977325
0.214760392375
0.214074100531
0.213259945264
0.212326358436
0.211158788269
0.209672203378
0.207772979518
0.205452212748
0.202748041017
0.19973652459
0.196507480303
0.19315215866
0.189754891016
0.186388657171
0.183113241197
0.17997511638
0.177008378109
0.174236233744
0.171672712535
0.169324385608
0.167191973373
0.16527178088
0.163556936382
0.162038435653
0.16070600582
0.159548806267
0.158555987939
0.15771713818
0.157022625193
0.156463857891
0.156033502605
0.155725639876
0.155535676933
0.155459991942
0.155496095331
0.155644998779
0.155914766723
0.156310826739
0.156834803406
0.157492038505
0.158288741343
0.159231748547
0.160328293072
0.161585760113
0.163011443325
0.164612314232
0.166394805125
0.16836458136
0.170526283304
0.172883200871
0.175436861414
0.178186504937
0.181128456484
0.184255411174
0.187555697598
0.191012588145
0.194603762422
0.198300997315
0.202070156259
0.205871516542
0.209660468869
0.213388624319
0.217005302717
0.220459368258
0.223701520716
0.22668665242
0.229377066829
0.231744904054
0.2337751239
0.235467336784
0.236834697119
0.237905229658
0.238713132086
0.239304891519
0.239721280873
0.240003998253
0.240191043915
0.240309665091
0.240376985165
0.240400496674
0.215306775426
0.214320797501
0.213162691451
0.21177177662
0.210129922751
0.208195523432
0.205928977501
0.203336865819
0.200457741863
0.197356224285
0.19410774843
0.190788771702
0.187469793001
0.184211580451
0.181063625461
0.178064075991
0.175240545602
0.172611374951
0.170187070046
0.167971749312
0.165964505381
0.164160631889
0.162552692661
0.161131438529
0.159886573523
0.158807378762
0.157883218749
0.157103951579
0.156460252525
0.155943825055
0.155547674856
0.15526622697
0.155095048158
0.155030522917
0.155070776343
0.155218702876
0.155482157491
0.155865380341
0.156370481365
0.157003565383
0.157771371768
0.15868121396
0.159740718401
0.160957570665
0.162339280841
0.163892983535
0.165625264921
0.167541999617
0.169648161453
0.171947572204
0.174442544256
0.177133392801
0.18001780447
0.1830900924
0.186340392055
0.189753894185
0.19331021077
0.196982984357
0.20073981378
0.204542575671
0.208348089167
0.212109147072
0.215775804434
0.219296877921
0.222622271113
0.225704760903
0.228504069698
0.230988567076
0.23313882073
0.234949563995
0.236426682701
0.237595001813
0.238482157296
0.23913703093
0.23960131403
0.23991848073
0.240129819968
0.24026495076
0.240344103195
0.240376597129
0.215049137085
0.21381279547
0.212390538758
0.210623339393
0.208584374752
0.206275405775
0.20369913788
0.200880138834
0.197861016147
0.194699024924
0.19145719146
0.188197878859
0.184977973559
0.181846198162
0.17884199744
0.175995508201
0.173328187583
0.170853796457
0.16857953801
0.16650722657
0.164634411278
0.162955409856
0.16146222701
0.160145353391
0.158994442949
0.157998871722
0.157148193778
0.156432512845
0.155842779854
0.155371019931
0.155010563463
0.154756124863
0.154603492727
0.154549335449
0.154592873014
0.154739164051
0.154993568652
0.155359300152
0.155841080896
0.15644521362
0.157178944653
0.158050096214
0.159066734673
0.160236878917
0.1615682633
0.163068164232
0.16474328475
0.166599669482
0.168642608079
0.170876471495
0.173304429442
0.175928004067
0.178746446746
0.181755953234
0.184948778508
0.188312348989
0.191828500795
0.195473001491
0.199215415291
0.203019431077
0.206843412803
0.210641339604
0.214363969652
0.217959924686
0.221378632083
0.224570813453
0.227494451963
0.230113894629
0.2324038832
0.234353036325
0.235957530302
0.237240348422
0.23822386941
0.238959023692
0.239487833568
0.239853631926
0.240097841004
0.240252490254
0.240342372399
0.240383524513
0.213765278181
0.212426969496
0.210854496149
0.208830809759
0.206511754714
0.203933762507
0.201136281328
0.198161091131
0.195055956975
0.191873733537
0.188668043705
0.185489805358
0.182384485855
0.179390532308
0.176538728523
0.173852235351
0.171347077933
0.169032901974
0.166913870904
0.164989614193
0.163256163697
0.161706834351
0.160333020354
0.15912489471
0.158072007594
0.157163784263
0.156389932651
0.155740775451
0.155207520658
0.154782482222
0.154459278394
0.154232886351
0.154099383409
0.154055933269
0.154102624731
0.154245118735
0.154487934829
0.154834053103
0.155289397984
0.155861024631
0.156556874637
0.157385387572
0.15835513079
0.15947447401
0.160751345282
0.162193089248
0.163806420401
0.165597437542
0.167571640303
0.169733878877
0.172088164507
0.174637284421
0.177382186718
0.180321145919
0.183448769008
0.186754978965
0.190224107111
0.193834342983
0.197557432472
0.201359043189
0.20519906543
0.209032647929
0.212811391703
0.216483809933
0.219999953491
0.223308737125
0.226366626198
0.229132077308
0.231572324677
0.233669952807
0.235413869755
0.236828089255
0.237933111744
0.23877401717
0.239388106292
0.23981751044
0.240101870387
0.240280431216
0.240384766577
0.240437524911
0.211597105753
0.210247217543
0.208614368573
0.20644743857
0.20396674764
0.201229892383
0.198305606367
0.195250379252
0.192117532292
0.188957819665
0.185818423914
0.182741817657
0.179764703942
0.176917409274
0.174223689439
0.171700890668
0.169360382016
0.167208179552
0.165245690511
0.163470513258
0.161877239597
0.160458217756
0.159204247212
0.158105190907
0.157150500445
0.156329654536
0.155632517413
0.155049630943
0.154572457985
0.154193587805
0.15390691027
0.153707666708
0.153592287051
0.153558529777
0.153607140739
0.153743696217
0.153972334463
0.154296342066
0.154722565284
0.155258896069
0.155914078796
0.156697273224
0.157617621142
0.158683866556
0.159904093084
0.161285612939
0.16283500203
0.164558235133
0.166460845644
0.16854801708
0.17082451251
0.173294358335
0.175960237692
0.178822607074
0.181878587007
0.18512084297
0.188536440869
0.192106264152
0.195804261687
0.199598194039
0.203449286318
0.207313935788
0.211145037874
0.214891493601
0.218504952743
0.22193072141
0.225123102435
0.228032706027
0.230621900622
0.232872705479
0.234775439071
0.236349256998
0.237611725109
0.238583127787
0.239294244176
0.239792306701
0.240123712003
0.240335873492
0.240463876298
0.240533800954
0.208750561307
0.207436958398
0.205804571749
0.203585406383
0.201043041285
0.19824412845
0.195278774949
0.192214163017
0.189108532639
0.186011938961
0.182967483002
0.180011804873
0.177175264592
0.174482085166
0.17195054968
0.169593319647
0.167417890831
0.16542717378
0.163620163408
0.161992652218
0.160537942001
0.159247517077
0.158111653808
0.157119955269
0.156261808743
0.155526767135
0.154904858668
0.154386838702
0.153964405553
0.153630392169
0.153378926298
0.153205489066
0.153106846378
0.153081297139
0.153130045978
0.153258311995
0.153470108566
0.153769366468
0.154163816493
0.154662261682
0.155274358689
0.156010107048
0.156879318595
0.157891149923
0.159053798787
0.160374420893
0.161859260525
0.163513935117
0.165343771316
0.16735406456
0.169550147835
0.171937166934
0.174519493965
0.177299834304
0.18027796525
0.18344955109
0.186804472727
0.190326573625
0.193991691904
0.197769943334
0.201623547204
0.205510947664
0.209386853889
0.213199553651
0.216901909753
0.220432383149
0.223744535795
0.226785829447
0.229525152476
0.231947773088
0.234049402774
0.235815447374
0.237242594261
0.238342122033
0.239153648865
0.239729781151
0.240123172591
0.240381358142
0.240541266778
0.240630930717
0.205414900906
0.204168067616
0.202578797144
0.200376070194
0.197849360838
0.195065803133
0.192130002687
0.189115570056
0.186084372766
0.183086327498
0.180162047691
0.177344302707
0.174659018827
0.172125955855
0.169759226455
0.16756778844
0.165555981877
0.163724131697
0.162069200841
0.160585460901
0.159265143395
0.158099041413
0.157077043661
0.156188596577
0.155423098476
0.154770227262
0.154220204909
0.153764011632
0.153393575156
0.153101951139
0.152883475063
0.152733828938
0.152650047695
0.152630848444
0.152677719682
0.152795406386
0.152987998788
0.153260244722
0.153620731505
0.154079245894
0.154646486911
0.155333453068
0.156150767088
0.157108069333
0.158213640684
0.159474343877
0.160895867662
0.162483187181
0.164241107881
0.166174725242
0.168289668022
0.170592016053
0.173087734175
0.175781851194
0.178676788493
0.181771452102
0.185058206489
0.188524265992
0.192146533717
0.195898706792
0.199743659054
0.203642136691
0.207549861824
0.211411711319
0.215181399571
0.218791860105
0.222205565137
0.225378961997
0.228295930991
0.230922783687
0.233219329356
0.235153981908
0.236729866837
0.237962292482
0.238888488999
0.239559920915
0.240028389608
0.240340430292
0.240544459957
0.240671971909
0.201762825738
0.200601464166
0.199084340467
0.196947493235
0.194492913668
0.191782784943
0.188930775691
0.186013219304
0.183094171956
0.180223401861
0.177439943529
0.174773994442
0.172248398764
0.169879673779
0.167678781789
0.165651795938
0.163800548225
0.162123291308
0.160615367033
0.159269857286
0.158078190652
0.157030682172
0.156116995995
0.15532653797
0.154648792
0.15407360415
0.153591411312
0.153193423186
0.152871784947
0.152619741542
0.152431778857
0.152303701549
0.152232710031
0.15221778695
0.152260534626
0.152365203064
0.152536126449
0.15277897385
0.153103178018
0.153519594576
0.15404012884
0.154676994991
0.155441835693
0.156344901043
0.157394550071
0.158597214028
0.159957772974
0.16148021848
0.163168462313
0.165027040732
0.167061560392
0.169278861757
0.171686292249
0.174291237169
0.177098360809
0.180110129548
0.183320349289
0.186720977164
0.190288989253
0.194003084855
0.19782539485
0.201717828821
0.205635486172
0.209518007605
0.213325881936
0.216999969343
0.220520448933
0.2238513094
0.226933100345
0.229714788144
0.232163216178
0.234252688435
0.235977036546
0.237347501345
0.238397790281
0.23917498681
0.239725525562
0.240116694919
0.240437006228
0.240675249694
0.197945636405
0.196878721227
0.195451513143
0.193413955201
0.191070297058
0.188474634185
0.185745559219
0.182959181896
0.180180414851
0.177458539297
0.174831409087
0.172327402411
0.16996715328
0.167764785368
0.165728875064
0.163863274586
0.162167877428
0.160639351465
0.159271831779
0.158057557768
0.156987439663
0.156051542045
0.155239478399
0.154540734034
0.153944951292
0.153442186883
0.153023119973
0.152679204494
0.15240279721
0.152187291904
0.152027244575
0.151918482679
0.15185826948
0.151845711477
0.151882339256
0.151971889998
0.152119008952
0.152330284446
0.152615987851
0.152988134319
0.153460034413
0.154045409918
0.154757229167
0.155606555895
0.156601847757
0.157748951589
0.159051665465
0.16051263172
0.162134489846
0.163920898715
0.165877073928
0.168010448082
0.170329227289
0.172843232602
0.175558271072
0.17848141261
0.181606608985
0.184932614381
0.188434453522
0.192096513011
0.195877995555
0.199738666232
0.20363583226
0.207512572523
0.211343282661
0.215095114542
0.218709169591
0.22213436393
0.22531962029
0.228217312008
0.230788805763
0.233007244702
0.234861987576
0.236361924306
0.23753654396
0.238422108999
0.239075151388
0.239652155462
0.240172626895
0.240580933747
0.194087468419
0.193117017588
0.191788974056
0.189871444051
0.187663321517
0.185209132289
0.182629308272
0.179997514161
0.177378385131
0.174820222318
0.172359766621
0.17002394354
0.167831695043
0.165795320005
0.163921575568
0.162212632938
0.160666948913
0.159280062709
0.158045305923
0.156954415576
0.155998057181
0.155166258958
0.15444874499
0.153835183691
0.153315420907
0.152879734689
0.152519054651
0.152225086573
0.151990387234
0.15180844779
0.151673806238
0.151582216257
0.151530922099
0.151519041086
0.151547858459
0.151620517941
0.151741924639
0.151919538081
0.152164452074
0.152489913005
0.152910856779
0.153442884173
0.154100712999
0.154896510752
0.155838868818
0.156932881643
0.158181017021
0.159584231965
0.16114351997
0.162861417952
0.164742177576
0.166793747871
0.169024142528
0.17144619595
0.174065469854
0.176895662136
0.179928555033
0.183171465868
0.186595150048
0.190186230632
0.1939018687
0.197701407855
0.201551277687
0.205421637289
0.209266129258
0.213035431117
0.21667999527
0.220148101848
0.223386890946
0.226347515905
0.228989452761
0.231286474639
0.233227267323
0.234823998721
0.236105150346
0.237096047712
0.237950693537
0.238805989331
0.239549725008
0.240170931196
0.190284612883
0.189408330069
0.188182803349
0.186396559236
0.184337769756
0.182041061698
0.179626455276
0.177163581276
0.17471589133
0.172330176366
0.170041950689
0.167876811677
0.165852294446
0.163979248216
0.162263034099
0.160704583408
0.159301352269
0.15804816413
0.156937916999
0.155962153241
0.155111524599
0.154376188435
0.15374610336
0.153211198951
0.15276153326
0.152387577216
0.152080513882
0.151832344742
0.151635859331
0.151484626942
0.151373098945
0.151296866078
0.151253062638
0.151240712113
0.151260682544
0.151315324038
0.151409626897
0.151551865902
0.151753898318
0.152030206565
0.152397545472
0.152873834747
0.153476103128
0.154218037632
0.155108434065
0.156151424808
0.157347961476
0.158697016641
0.160197428676
0.161850560989
0.163658771188
0.165630890989
0.167773484218
0.170103947491
0.172625575878
0.175360558069
0.178296440658
0.181446101634
0.184775797027
0.188269923913
0.19189154579
0.195614891517
0.199412244007
0.203230219149
0.207033432338
0.210771462202
0.214391675372
0.217840482118
0.22106359891
0.224011966861
0.22664560588
0.228941704717
0.230889935442
0.23251042626
0.233842600462
0.234969069775
0.236107150339
0.237247010995
0.238247872074
0.239152461516
0.186608867989
0.185821800007
0.18469813728
0.183047564206
0.18114394718
0.179012411646
0.176770948658
0.174484089829
0.172213420369
0.17000372997
0.167889119215
0.165893852826
0.164034207249
0.16231983525
0.160755026335
0.159339836502
0.158071098271
0.156943281808
0.155949176929
0.15508038892
0.154327717232
0.153681528099
0.15313208622
0.152669668467
0.152284556068
0.151967327696
0.151709386527
0.151503100214
0.151341566191
0.15121842194
0.151127955554
0.151065502428
0.151028000597
0.151014336165
0.151024903587
0.15106099053
0.151127409889
0.151233193775
0.151390787003
0.151615719695
0.151926648225
0.15234430472
0.15288879158
0.153575922423
0.154414771784
0.155408156535
0.156555309637
0.157853050802
0.159297246629
0.160888556608
0.16262639323
0.164521707782
0.166578119291
0.168819147038
0.171244345996
0.173882103605
0.176714956782
0.179753128917
0.182966636019
0.186338803702
0.189863579063
0.193483097111
0.197182893837
0.200913338764
0.204628463129
0.208278079207
0.211807987929
0.215161964888
0.218282481081
0.221118870516
0.223631770522
0.225806592877
0.227640359441
0.229173331761
0.230466854826
0.231715917135
0.233109843261
0.234539114901
0.235829789975
0.237103859753
0.183111016253
0.182406845009
0.181381823547
0.179866481284
0.17811820259
0.176153430406
0.174086984728
0.171977649228
0.16988466189
0.167850401026
0.165907364791
0.164078429243
0.162378692482
0.160816792233
0.159396202751
0.158116407514
0.156973933672
0.155963201299
0.15507714992
0.154307639747
0.153645710861
0.153081923576
0.152606834114
0.152211166174
0.151885461045
0.151620146767
0.151406662286
0.15123789975
0.151107590468
0.151009600615
0.150938067708
0.150888049152
0.150856224278
0.15084125513
0.150842941091
0.150861022979
0.150899820797
0.150969260208
0.151082044667
0.151254206352
0.151506205553
0.151862162455
0.152346269979
0.15297721343
0.153764403654
0.154708668678
0.155807262579
0.157055202373
0.158444280277
0.159975830836
0.161645253091
0.163466915022
0.165440697888
0.167594868534
0.169924440405
0.172455259116
0.175171600122
0.178070235904
0.181165907579
0.184405081511
0.187797332591
0.191296268677
0.194866044258
0.198462051542
0.202035998926
0.205535419414
0.208903083094
0.212078802978
0.214998539044
0.217604283559
0.219849127086
0.221720988027
0.223221194047
0.224488764797
0.225678212463
0.226984562483
0.228492507737
0.230123261504
0.231669099706
0.233389360439
0.179824912203
0.179196636774
0.178265412355
0.176881565539
0.175284871951
0.173484108777
0.171590136254
0.169655664588
0.167737276377
0.165874628207
0.164098466213
0.162430218971
0.160883862095
0.159467159749
0.158182977652
0.157030473488
0.156006131954
0.15510456908
0.154319077248
0.153641931013
0.153064486168
0.152577339362
0.152170981682
0.151836543994
0.151565271699
0.151347169793
0.15117333894
0.151037560182
0.150935016233
0.150859959581
0.150806035034
0.150767723661
0.150741186829
0.150724621132
0.150717288702
0.150717620379
0.150729831114
0.150764698375
0.150834215219
0.150953783209
0.151145322024
0.1514368939
0.151857977314
0.152430984464
0.153165756135
0.154060247473
0.155109445003
0.156307824465
0.157641968868
0.159115252631
0.16071869985
0.16246939197
0.164363167702
0.166426070661
0.168653185005
0.171051848949
0.173650146505
0.176409154513
0.179359640782
0.182466797246
0.185709844757
0.189052486777
0.192454507229
0.195870139792
0.199248709366
0.20253464416
0.205666945705
0.208581257024
0.211205140325
0.213471057224
0.215324206169
0.216732153708
0.217597099571
0.218180203555
0.218948577908
0.220109971216
0.221590527519
0.22325355873
0.224873510379
0.227030555032
0.176770573677
0.176211139565
0.175367987578
0.17410976349
0.172658307282
0.171015809367
0.169288649162
0.16752338412
0.165773776015
0.164076551448
0.162460612797
0.16094590471
0.159545335908
0.158265917461
0.157110072275
0.156076825166
0.155162832182
0.154363133986
0.153671567051
0.15308085847
0.152582473647
0.152166649066
0.151823233379
0.1515436367
0.151322029723
0.151147279345
0.151008377917
0.150899854301
0.150819989544
0.150763809307
0.150723937673
0.150694370306
0.150671299174
0.150652953714
0.15063860715
0.150625434447
0.150615720849
0.150620290205
0.15065101898
0.150720954295
0.150852547057
0.151078089746
0.151433843718
0.151946977026
0.152628178265
0.153471737801
0.154469736586
0.155618064294
0.156897318108
0.158312537066
0.159850617536
0.161526565433
0.163335773288
0.165286597053
0.167408937394
0.169679473609
0.172139184365
0.174771331221
0.177573460444
0.180523554357
0.183594425014
0.186749847028
0.189947150966
0.193138003046
0.196268574059
0.19927970653
0.202106554259
0.204681483365
0.20692579968
0.208779632897
0.210225842028
0.211245778094
0.211679105914
0.211444611991
0.211018963872
0.211159152432
0.211978215735
0.21310111963
0.214173458282
0.216393865694
0.173957564736
0.173460064587
0.172698805893
0.171559012353
0.17024481827
0.168752872929
0.167184755979
0.165580975491
0.163992420189
0.162452772866
0.160989061272
0.159619740376
0.158356718444
0.15720636175
0.156170781205
0.155249002466
0.154438019852
0.153733543586
0.15313012506
0.152620635717
0.152196099313
0.151847159181
0.15156425002
0.15133539207
0.151160571875
0.151024385493
0.150912808984
0.150822564026
0.150757898608
0.150716948531
0.150690155081
0.150670194826
0.150653472373
0.150636976679
0.150616924781
0.150588218569
0.150553867479
0.15053228702
0.150532507783
0.150558229478
0.150632696549
0.150792580968
0.151082575488
0.151535221437
0.152162329558
0.15295429099
0.153899358227
0.154995498495
0.156217540214
0.157568609137
0.159035408877
0.160618201159
0.162339023734
0.164181385762
0.166182968204
0.168341143871
0.170667468992
0.173156756582
0.17579923213
0.178573677712
0.181450030856
0.184389990606
0.187348311542
0.190273496074
0.193107935328
0.195788462158
0.19824539327
0.200407588534
0.202198194257
0.20359727968
0.204609087039
0.205026157029
0.204747021134
0.203929375052
0.202851899381
0.201618508032
0.200542312962
0.199560124822
0.198134569882
0.198505771757
0.171387199446
0.170945169085
0.170259528529
0.169230256873
0.16804442168
0.166694100983
0.165275912604
0.163824550351
0.162388063846
0.16099705952
0.159676713579
0.158444015248
0.157309949813
0.156280343075
0.155357100402
0.154539325135
0.153824443439
0.153209050363
0.152688699732
0.152256852595
0.151904963745
0.151623178021
0.151404276123
0.151215198576
0.151067245319
0.150958848451
0.15087490415
0.150807669933
0.150757225542
0.150721170811
0.150693752056
0.150670328943
0.150647371803
0.150621182165
0.150588602151
0.150551885721
0.150523919436
0.150504775106
0.150480574009
0.150466351969
0.150487586774
0.150585070047
0.150812866736
0.151207500659
0.151780825281
0.152519759306
0.153407866551
0.15444325384
0.155599656469
0.156867765585
0.158257635664
0.159749246104
0.16136834138
0.163114717857
0.165003054691
0.167038981826
0.169227365736
0.17156371022
0.17403481819
0.176617416387
0.179278912029
0.181978448059
0.184667890035
0.187292289925
0.189790173773
0.192093581155
0.194124851185
0.195811597718
0.197098127354
0.197996988165
0.198342587041
0.198045535845
0.197036966995
0.19555823419
0.193541941815
0.190797285039
0.187039174364
0.181868870555
0.174202429952
0.16667838967
0.169054999604
0.168662400597
0.168046163811
0.16711918757
0.166052366337
0.164834069767
0.163555911809
0.162247096529
0.16095293082
0.159700977108
0.158514626508
0.157409446562
0.156395582512
0.155478419652
0.154659759028
0.153938809856
0.153313349958
0.152781013515
0.15233977505
0.151987930768
0.151716544763
0.151489086324
0.15131037856
0.151165874578
0.151046240493
0.150948368338
0.150870333369
0.150808903223
0.150760745395
0.150722653717
0.15069098601
0.150662643348
0.150635026189
0.150605657664
0.150573048179
0.150538914242
0.150507685123
0.150477292476
0.150453771841
0.15043497715
0.150420246552
0.150464003099
0.150634452088
0.150973726626
0.151489838754
0.152169310538
0.152990684232
0.153945241042
0.155029443502
0.156215684645
0.157517260887
0.15892576208
0.160448765136
0.162091695244
0.163864137645
0.16577206185
0.167816825987
0.169991661255
0.172280410255
0.174657054625
0.177086328147
0.179524691204
0.18192106474
0.184217403055
0.186349035673
0.1882416018
0.18980887378
0.190992722562
0.191752930572
0.191982343408
0.191622662707
0.19049340618
0.188819813862
0.186508428565
0.183220430369
0.178449166677
0.171079432852
0.158808134825
0.13493474394
0.0762413392808
0.166952090164
0.166603446207
0.166050618815
0.165217680709
0.164260422953
0.163164261035
0.162015855957
0.16083930325
0.159677304759
0.158554460673
0.157492473161
0.156505542702
0.155603049537
0.15479002109
0.154068262586
0.153437075572
0.152894184948
0.152438432328
0.152073641976
0.151805973924
0.15159769249
0.151420223417
0.151271531492
0.151144581267
0.151038788545
0.150950372542
0.150873063908
0.150809649717
0.150758873783
0.150717313306
0.150681617987
0.150649510467
0.150619147236
0.150588906732
0.150557989511
0.150526921239
0.150497415897
0.150469653213
0.150445168705
0.150421330702
0.15040736742
0.150427405433
0.150544673322
0.150827101231
0.15127324054
0.151880677349
0.152631482086
0.153506713334
0.15450970519
0.155620557638
0.156836366775
0.158153993058
0.159577326444
0.16111209809
0.162765048533
0.164540042653
0.166435342507
0.168441087867
0.17053796203
0.172697002526
0.174880278315
0.177041657387
0.179127455387
0.181077664049
0.182824764326
0.18428682364
0.185386385354
0.186105532939
0.18632297488
0.185797422598
0.184600189657
0.182806091536
0.180387644673
0.177112187714
0.172468506895
0.165617537174
0.154928561279
0.137279541672
0.107745396948
0.0565727863071
0.165066890619
0.164757181037
0.164262012587
0.163514992745
0.162657960272
0.161674016636
0.160644990572
0.159590279459
0.158550142799
0.157546333809
0.156598980619
0.155720975566
0.154920990608
0.154203745728
0.153571156827
0.153022650738
0.152555191626
0.152168994944
0.151877346771
0.151688442715
0.151520207373
0.151374270174
0.151246529822
0.151136060049
0.151035499579
0.150948552151
0.150870871815
0.150804253223
0.15075023276
0.150706294556
0.150668448935
0.150634684334
0.150603309887
0.150573035674
0.150543219671
0.150514023966
0.15048658906
0.150461361445
0.150439121668
0.150420657164
0.150411696029
0.150421952077
0.150507760894
0.150737112912
0.151117982342
0.151653505454
0.152331514661
0.153136172606
0.154058241984
0.155085128113
0.156210724538
0.157432537779
0.158752631817
0.160175362485
0.161705020986
0.163342653577
0.165083226677
0.16691348003
0.168810842971
0.170743489888
0.172671052108
0.174545088913
0.176310187845
0.177905552461
0.179258541589
0.180282888826
0.180944260297
0.181226263413
0.180672342269
0.179536995538
0.177629089331
0.175164081104
0.171961740645
0.167706491455
0.161889334646
0.153489912987
0.140809438986
0.121800249321
0.0937422555129
0.0526657029381
0.163385912692
0.163110634462
0.162667679976
0.161998715728
0.161232823907
0.160351331507
0.159431407966
0.158488173196
0.157559618173
0.15666478524
0.155822352818
0.155043962586
0.154337628475
0.153707779673
0.153156569443
0.152683897341
0.152286136426
0.151967507111
0.151760969892
0.151600911675
0.151463768608
0.151340609481
0.151228112547
0.151125786347
0.151029718683
0.150942228222
0.150863062857
0.150793725665
0.150736296476
0.150690237772
0.150652248925
0.150618675124
0.150587510042
0.15055769769
0.150528761939
0.150501002095
0.150475051336
0.150451127471
0.150430295094
0.150413925591
0.150411607367
0.150424921485
0.150495120217
0.150685641044
0.151016605899
0.151489517207
0.15209645989
0.152825141052
0.153664403338
0.154603601274
0.15563593866
0.15675860376
0.157972423297
0.159280001659
0.160683095542
0.162179651168
0.163761194166
0.165411024615
0.167103456964
0.168804134495
0.170470657056
0.172052892611
0.173495203274
0.174735777104
0.175694404697
0.176302071318
0.176559320172
0.176174938168
0.175162672257
0.173252402516
0.170799482974
0.167742288274
0.163831073336
0.158724940922
0.151941743151
0.142578857195
0.128822689627
0.109987181487
0.0839539208799
0.0480582968396
0.161894863725
0.161649909718
0.161254004358
0.160655546946
0.159972047269
0.159183501999
0.158362632731
0.157520697383
0.156693594904
0.155897803681
0.155150673843
0.154462653659
0.153841131449
0.15329021732
0.152812224648
0.15240732827
0.152071222969
0.151808992984
0.151677116297
0.15153499075
0.151419216861
0.151310876963
0.151208977538
0.151111541307
0.151018246942
0.150930929967
0.150850764389
0.150779353593
0.150718833905
0.15067115229
0.150633631129
0.150601402928
0.150571344642
0.150542350251
0.150514373972
0.150487780861