/*--------------------------------*- C++ -*----------------------------------*\
| =========                 |                                                 |
| \\      /  F ield         | OpenFOAM: The Open Source CFD Toolbox           |
|  \\    /   O peration     | Version:  v1806                                 |
|   \\  /    A nd           | Web:      www.OpenFOAM.com                      |
|    \\/     M anipulation  |                                                 |
\*---------------------------------------------------------------------------*/
FoamFile
{
    version     2.0;
    format      ascii;
    class       volScalarField;
    location    "300";
    object      p;
}
// * * * * * * * * * * * * * * * * * * * * * * * * * * * * * * * * * * * * * //

dimensions      [0 2 -2 0 0 0 0];


internalField   nonuniform List<scalar> 
6400
(
0.181883418395
0.181487131714
0.181100680681
0.180857997165
0.180949845215
0.180886834713
0.180251527328
0.178904528096
0.177021954376
0.17465672885
0.171891990606
0.168819411586
0.165531594084
0.162115768403
0.158649889583
0.155200675292
0.151823122283
0.148561028093
0.145448111285
0.142509415758
0.139762778223
0.13722021881
0.134889177976
0.132773567255
0.130874630765
0.129191630851
0.127722380515
0.12646364801
0.125411460234
0.124561329179
0.123908418482
0.123447659609
0.123173846141
0.123081781119
0.123166550213
0.123423924189
0.123850556966
0.124442379659
0.125191826878
0.126091812245
0.127137381619
0.128322995973
0.129643076342
0.131092183703
0.132665097925
0.134356848892
0.136162718704
0.138078219571
0.140099047042
0.142221007291
0.14443991761
0.146751481279
0.149151140037
0.151633910657
0.154194214596
0.156825713057
0.159521161416
0.162272298706
0.165069787007
0.167903214152
0.170761168609
0.173631390443
0.176500994055
0.179356750257
0.182185405502
0.184974007774
0.187710195018
0.190382386634
0.192979810728
0.195492296335
0.197909732108
0.200220967687
0.202411710627
0.204461371183
0.206340590564
0.208010641738
0.209414581117
0.210445258908
0.210953836799
0.210979566692
0.181668816853
0.181238805347
0.18102320625
0.180861988997
0.180674418187
0.180677345123
0.180100473121
0.178770365593
0.176859900426
0.174451878959
0.171643287925
0.168531561814
0.165212177587
0.161773421774
0.158293145527
0.154837246464
0.151459519736
0.148202425237
0.145098374101
0.142171233903
0.139437845712
0.136909428827
0.134592808566
0.132491445476
0.1306062695
0.128936337536
0.127479339093
0.126231976238
0.125190244575
0.124349640326
0.123705313013
0.123252156663
0.122984823132
0.122897733343
0.122985387963
0.123243318072
0.123669226028
0.124260136746
0.125010845186
0.125914540629
0.126963770073
0.128152232788
0.129474109831
0.130923898966
0.132496376599
0.13418659073
0.135989853879
0.137901719737
0.139917939482
0.142034390953
0.144246981496
0.146551521988
0.148943577794
0.151418299912
0.153970248198
0.156593216192
0.159280074781
0.162022648149
0.164811640331
0.167636623937
0.170486103288
0.173347654144
0.176208138883
0.179053983375
0.181871495984
0.184647197507
0.187368123118
0.190022037741
0.192597505826
0.195083754547
0.197470227767
0.199745668712
0.201896475076
0.203904230663
0.205743139838
0.207378008253
0.208759031968
0.209806404402
0.210405252608
0.210517337609
0.182062397773
0.181525340648
0.181099064336
0.180904616554
0.180560656049
0.180106532134
0.179206304196
0.177717574389
0.175688708586
0.17319318698
0.170327355711
0.167187966352
0.163867766938
0.160450908614
0.15701049564
0.153607661325
0.150291816132
0.147101641473
0.144066471483
0.141207798871
0.138540733477
0.136075316459
0.133817646838
0.131770811536
0.12993563068
0.128311239841
0.126895534047
0.125685498564
0.124677451311
0.123867224791
0.123250304137
0.12282188304
0.122576735692
0.122509107005
0.122613736888
0.122888496446
0.123332572034
0.123939726114
0.12470208151
0.125614128159
0.126669761041
0.127863033893
0.12918821782
0.130639830212
0.132212652883
0.133901745353
0.135702447173
0.137610363274
0.139621326183
0.141731331032
0.143936440062
0.146232656474
0.148615769518
0.1510811769
0.153623693213
0.15623735742
0.158915254544
0.161649369293
0.164430488775
0.167248170339
0.170090785876
0.172945648741
0.175799220969
0.178637390457
0.18144579646
0.184210173799
0.186916683027
0.189552167932
0.192104275908
0.194561416284
0.196912424833
0.199145824452
0.20124862557
0.203204499413
0.204991190865
0.206577541365
0.207921226557
0.208962514141
0.209601163703
0.209763515995
0.182888963435
0.182261930471
0.181621745141
0.181014710312
0.180269411992
0.179303928096
0.177971537219
0.176192929703
0.173973417369
0.171363841329
0.168443192666
0.165296658507
0.162007090638
0.158649537434
0.155288807616
0.151978771977
0.148762780964
0.145674705684
0.142740256857
0.139978354507
0.137402414014
0.135021480941
0.132841190203
0.1308645511
0.129092573443
0.127524755699
0.126159456631
0.124994171827
0.124025738675
0.123250496075
0.122664405029
0.122263049036
0.122041381331
0.121993687212
0.122115724023
0.122408707602
0.122869740169
0.123490498917
0.12426481123
0.125186590591
0.12624978835
0.127448508419
0.128777046967
0.130229927577
0.131801933786
0.133488135865
0.135283906271
0.137184916955
0.139187112535
0.141286653356
0.143479824673
0.145762909747
0.148132028572
0.15058294701
0.153110865719
0.155710201689
0.158374379743
0.161095653142
0.163864973681
0.166671929611
0.169504765812
0.172350494558
0.175195096582
0.178023803605
0.180821443304
0.183572808418
0.186263036238
0.188877944191
0.191404202911
0.193829432911
0.196142030087
0.198330592136
0.200383089322
0.202285555101
0.204019771043
0.205559996556
0.206872045114
0.20791173483
0.208578386376
0.20879397895
0.183782612231
0.18296992676
0.181993906735
0.180905796021
0.1796617377
0.178202599077
0.176441475257
0.174335579383
0.171890979149
0.169147956235
0.166168761327
0.163022914177
0.15977904556
0.156499713104
0.153239068599
0.150042214244
0.146945573427
0.1439777813
0.141160781201
0.138510939491
0.136040078384
0.133756381085
0.131665155828
0.129769463016
0.128070618173
0.126568586028
0.12526228141
0.124149794176
0.123228561857
0.122495510261
0.121947133608
0.121579394539
0.121387465192
0.121366154807
0.121512577426
0.121828814755
0.1223107304
0.122948806615
0.123737571187
0.124671146055
0.125743637539
0.126949217059
0.128282194066
0.129737076466
0.131308624021
0.13299189371
0.134782272377
0.136675490553
0.138667610235
0.140754979823
0.142934150202
0.145201748607
0.147554310109
0.149988071367
0.152498735417
0.155081221154
0.157729416489
0.160435957718
0.163192057952
0.165987408261
0.168810167633
0.17164705534
0.174483546129
0.177304159307
0.180092836276
0.182833335746
0.185509658566
0.18810651974
0.190609517784
0.193005395889
0.195282077826
0.197428172082
0.199432421998
0.201282810846
0.202964738656
0.204457630327
0.205733332684
0.206763657859
0.207441055963
0.207707447985
0.184309951191
0.183134846314
0.181834273246
0.180325101192
0.178630491176
0.176731337228
0.174589219824
0.17218804528
0.169540245746
0.166680782963
0.16365899664
0.160529516039
0.157346344942
0.154158986124
0.151010605578
0.147937488119
0.144969276119
0.142129606087
0.139436903039
0.136905194407
0.134544871383
0.132363364581
0.130365722665
0.12855509448
0.126933120929
0.125500244629
0.124255947145
0.123198927834
0.122327249668
0.121638463729
0.121129628448
0.120797066286
0.12063622268
0.120643165093
0.120817766633
0.121159558066
0.12166258426
0.12231906502
0.123123435458
0.124069874555
0.125152534981
0.126365600621
0.127703359242
0.129160274491
0.13073105582
0.132410722487
0.134194656108
0.136078634486
0.138058838351
0.140131822086
0.142294440361
0.144543724823
0.146876708996
0.149290205137
0.151780542101
0.154343277266
0.15697290429
0.159662583738
0.162403921414
0.16518682735
0.167999470849
0.170828352208
0.173658498467
0.176473750587
0.179257197118
0.181991602991
0.184659815647
0.18724552687
0.189733294136
0.19210897594
0.194360078482
0.196475147526
0.198443417128
0.200254199688
0.201895573867
0.203351244897
0.204595020435
0.205616140706
0.206294860143
0.20660828248
0.183756951651
0.182435523801
0.180953604203
0.179139395
0.177104012123
0.174864136347
0.172424509861
0.169793443399
0.166991350503
0.164050429851
0.161010503044
0.157914003776
0.154802385753
0.151713709135
0.148681449329
0.145734115142
0.142895374877
0.14018445251
0.137616644154
0.13520386609
0.132955184699
0.130877301197
0.128974977424
0.127251397662
0.1257084664
0.124347044302
0.123167127756
0.122167984529
0.121348270953
0.120706132319
0.120239160994
0.119944048073
0.119816613269
0.119854267043
0.120059302325
0.120428449862
0.120953833684
0.121629864077
0.122450893648
0.123411172603
0.124504876412
0.125726167932
0.127069276074
0.128528581118
0.130098701881
0.131774579971
0.133551554822
0.135425421317
0.137392459939
0.139449428191
0.141593502153
0.143822159535
0.146132999664
0.14852350309
0.150990741353
0.153531047317
0.156139669496
0.158810449411
0.161535539205
0.164305216306
0.167107798635
0.16992968776
0.172755586637
0.175568750316
0.178351506809
0.181085786314
0.183753272587
0.186336831931
0.188820090887
0.191188010736
0.19342779239
0.195527815165
0.197477501876
0.199266914776
0.200885645799
0.202321070196
0.203544675075
0.204564060324
0.205242494653
0.205599372679
0.182197086435
0.180872759828
0.179325638301
0.177330831285
0.17507883845
0.172613188588
0.16997408446
0.167190829679
0.164292847147
0.161312000972
0.15828185804
0.155235859682
0.152205778037
0.149220601974
0.14630597017
0.143483988867
0.140773311319
0.138189372688
0.135744709677
0.133449317259
0.131311009696
0.129335762568
0.127528020075
0.125890958909
0.124426705036
0.123136503017
0.122020841801
0.121079549108
0.12031187427
0.119716552257
0.119291722794
0.119034591371
0.118941622381
0.119011235971
0.119246492264
0.11964309096
0.120192007824
0.120888419299
0.121726890344
0.122701771931
0.123807253546
0.125037451252
0.126386502199
0.127848665697
0.129418428518
0.13109061064
0.132860465192
0.13472376347
0.136676853388
0.138716677247
0.140840733741
0.143046972175
0.145333610768
0.14769887854
0.150140697995
0.152656312992
0.155241877706
0.157892084637
0.160599804339
0.163355856889
0.166148890254
0.168965359773
0.171789836627
0.17460514717
0.177392983768
0.180134811853
0.182811111751
0.185404280031
0.187897221544
0.190273901641
0.192521395427
0.194627722405
0.196582130963
0.198375003718
0.19999612351
0.201435940354
0.202660090813
0.203693337301
0.204378247973
0.204777528651
0.179891534749
0.178605119789
0.177050487817
0.174971965713
0.172610916394
0.170024083419
0.167278273558
0.164418656192
0.161482887009
0.158503956147
0.155511852297
0.152533987416
0.1495952581
0.146717971534
0.143921816725
0.141223895316
0.138638822565
0.136178889676
0.133854274518
0.131673282575
0.129642597966
0.127767525234
0.126052206876
0.124499807406
0.123112659689
0.121892373142
0.120839909171
0.119955637675
0.11923938431
0.118690444583
0.118307467524
0.118088230039
0.118030051936
0.11813217933
0.118397423027
0.118821021441
0.119393519805
0.120110541079
0.120966817995
0.121956763866
0.123074549493
0.124314210988
0.125669758143
0.127135289589
0.128705115187
0.130373883429
0.132136707929
0.133989283176
0.135927976341
0.137949878195
0.140052792079
0.142235144695
0.14449580861
0.146833823767
0.149248055291
0.151736789836
0.154297229676
0.15692509768
0.159614163203
0.162355972592
0.165139727215
0.167952092077
0.170777771019
0.173599426814
0.176398217363
0.179155859571
0.181851489216
0.184467537307
0.186986544144
0.189391203895
0.19166895476
0.193807328369
0.195794958574
0.197622376763
0.199278309673
0.200754849716
0.202009707154
0.203079942179
0.20378585026
0.204231410076
0.177023356684
0.175793933591
0.174267183355
0.172174735244
0.169787067933
0.167163355133
0.164388562581
0.161518157657
0.158596131542
0.155657000714
0.152728978606
0.149835771778
0.14699773577
0.144232544825
0.141555586177
0.138980197848
0.136517843829
0.134178278375
0.131969721752
0.129899048002
0.127971973744
0.126193233672
0.124566731092
0.123095656731
0.121782573126
0.120629466277
0.119637773223
0.118808403937
0.118141757537
0.117637668986
0.117295206405
0.117112619149
0.117088353025
0.117222999932
0.11751794139
0.117967907402
0.118563770382
0.119301448412
0.120175781631
0.121181196367
0.122311809783
0.123561548805
0.124924266508
0.126393867041
0.127964442268
0.129630419585
0.131386715869
0.133228886955
0.135153257572
0.13715701349
0.139238225322
0.14139577969
0.14362921838
0.145938432763
0.148323291036
0.150783251457
0.153316676326
0.155920495269
0.158589548961
0.161316265202
0.164090680347
0.166899809364
0.16972882778
0.172560699034
0.175375965281
0.178157712426
0.180883363934
0.18353596281
0.186098418813
0.188551676274
0.19088510817
0.19308605633
0.195141371614
0.19704138625
0.198772835427
0.200326340586
0.201651954716
0.202789140748
0.203537620072
0.204040845824
0.173735886505
0.172580624054
0.171109729929
0.169054526565
0.166700859842
0.164104118848
0.161360823079
0.158531944728
0.155665743807
0.152798037899
0.149956295308
0.147162112921
0.144433022336
0.141783632959
0.139226333144
0.136771714271
0.134428850695
0.132205515664
0.130108372377
0.128143150815
0.126314806271
0.124627651242
0.123085454407
0.121691504481
0.120448639651
0.119359247475
0.118425248097
0.117648083684
0.117028709861
0.11656746632
0.11626373521
0.11611608257
0.116124452586
0.116292352678
0.116616713048
0.117090876024
0.117709286483
0.118467273969
0.119359599397
0.120380617836
0.121524354789
0.122784605449
0.124155046257
0.125629362369
0.127201393922
0.12886530176
0.130615748759
0.132448085461
0.134358521341
0.136344266853
0.138403605822
0.140535841325
0.142741178513
0.145020384237
0.147374330899
0.149803784185
0.152308310862
0.154886205969
0.157533547163
0.160243730352
0.163008008537
0.165813869848
0.168647289665
0.171492191046
0.17432797784
0.177140462495
0.179904861637
0.182605823504
0.185228374032
0.187750596996
0.190166936845
0.192465448003
0.194628173484
0.196644233873
0.198498065354
0.200174631219
0.201620860884
0.202866169191
0.20369036476
0.204275425241
0.170165786334
0.169095240835
0.167699450996
0.165717544618
0.163440646798
0.160916887191
0.158249521974
0.155501364172
0.152723147367
0.149951488099
0.147213587989
0.144529907127
0.141916296039
0.139385401631
0.136947575361
0.134611454046
0.132384353471
0.130272560264
0.128281564917
0.126416250822
0.124681040659
0.123079998147
0.121616885494
0.120295180081
0.11911805552
0.118088335397
0.117208436801
0.116480330444
0.115905501415
0.115484760803
0.11521783301
0.115103666921
0.115143252981
0.11534139602
0.115693538212
0.116191932164
0.116832506938
0.117610484558
0.11852060605
0.119557173275
0.120714125112
0.121985127562
0.123363679553
0.124843239031
0.126417374682
0.12807994619
0.129825311045
0.131648549087
0.133545674814
0.135513836314
0.137551468537
0.139658219599
0.14183492739
0.144083264401
0.146404990147
0.14880234926
0.151276051475
0.153825887983
0.156449365649
0.1591408202
0.161893193381
0.164694474685
0.167531472077
0.170389674167
0.173246469724
0.176092192175
0.178899946736
0.181657704413
0.18435639126
0.186968417191
0.189493557532
0.191921356583
0.194227811386
0.196400911999
0.198424778992
0.200278587346
0.201908812556
0.203324028872
0.204276793843
0.204989757556
0.166435486771
0.165452873498
0.164142599503
0.162257069242
0.160084951101
0.157665261847
0.155104474368
0.152464559993
0.149797284554
0.147139465888
0.144518159917
0.141953201632
0.139459451969
0.137048317917
0.134728790314
0.132508148712
0.130392461705
0.128386959233
0.126496315633
0.124724858995
0.123076712603
0.121555872846
0.120166230835
0.118911547334
0.117795391253
0.116821053954
0.115991459806
0.115309096674
0.11477594154
0.114393242499
0.114161137042
0.114079082792
0.114148673576
0.114374763966
0.114752927049
0.115274885812
0.115936892346
0.116734201954
0.117661555042
0.11871321777
0.119883059482
0.121164635017
0.122551281854
0.1240362401
0.125612804409
0.127274514318
0.129015380798
0.130830154756
0.132714579308
0.134665631128
0.136681841451
0.138763103861
0.140910805281
0.143127623634
0.145415883935
0.147779577792
0.150220372091
0.152739631829
0.155336551529
0.15800614654
0.160743373811
0.163536428545
0.166372691672
0.169239759412
0.172112725983
0.174989948315
0.177845383011
0.180666683646
0.183455409899
0.186179594163
0.188831747241
0.191404832875
0.193884404136
0.196258237722
0.198508494172
0.200608236432
0.202500050605
0.204162224107
0.205318305
0.206225675771
0.162644586241
0.16174843723
0.160527726371
0.158751564888
0.156700604615
0.154404129642
0.151969301111
0.149455359554
0.146913996021
0.144381632889
0.141885090708
0.139443781014
0.137071946609
0.134780197662
0.132576622724
0.130467585861
0.128458317039
0.126553356104
0.124756881155
0.123072935909
0.12150556567
0.120058872608
0.11873700423
0.117544090559
0.116484145023
0.115560945703
0.114777920587
0.114138052425
0.113643763899
0.11329667706
0.113097338407
0.113045798919
0.113144093688
0.113396619583
0.113799478029
0.114343910898
0.115026302202
0.115841931919
0.116785545154
0.117851390591
0.11903329426
0.120324731116
0.121718909347
0.123208878858
0.124787675877
0.126448521115
0.128185052432
0.129991647673
0.131863727134
0.133797947329
0.135792907656
0.137848627168
0.139966843002
0.142151537839
0.144404985933
0.146733339655
0.14913895171
0.151624657437
0.154191567899
0.156834611783
0.15955079828
0.162328015804
0.165154382779
0.168022790186
0.170907204638
0.173813269221
0.176728347533
0.179618363221
0.182486123174
0.185316249124
0.188101872935
0.190838012391
0.193516960844
0.196129382312
0.198658614755
0.201074174568
0.203314554508
0.205321358827
0.206795637039
0.208014354424
0.158870457693
0.158056740694
0.156925545263
0.155264471084
0.153342411266
0.151179181279
0.14888088083
0.146502776957
0.144095679861
0.141695080172
0.139327371709
0.137011557249
0.134761426406
0.132587046549
0.130495908035
0.128493784556
0.126585392208
0.124774888649
0.123066234304
0.121463428832
0.119970636212
0.118592215288
0.117332676044
0.11619658232
0.115188420079
0.114312451561
0.113572583595
0.1129722582
0.112514287756
0.112200543639
0.112031842495
0.112009038853
0.112135081435
0.112412944119
0.112839152615
0.113404680254
0.114106053183
0.114938579441
0.115897011458
0.116975597416
0.118168149905
0.119468103112
0.120868579183
0.122362480484
0.123942614061
0.125601906687
0.127333615472
0.129131709996
0.130991302026
0.13290850343
0.134881997425
0.136911846684
0.138999713824
0.141151539574
0.143368621128
0.145659725582
0.148027615191
0.150475919091
0.153007802749
0.155616776843
0.158302008558
0.161054164334
0.163860381707
0.166725624724
0.169630222229
0.172554627559
0.175497007793
0.178439173397
0.181376484734
0.184302378857
0.187214591494
0.190113775297
0.193000237387
0.19587167399
0.198716965058
0.201507190118
0.204179669948
0.206642010246
0.20859583681
0.210287711212
0.155172101661
0.154435351185
0.153390940015
0.151845554258
0.150053968385
0.148027320034
0.145869474607
0.143630989206
0.141361243855
0.139094354605
0.136856071358
0.13466490781
0.132534246506
0.130473748552
0.12849050724
0.126589946084
0.124776523596
0.12305426747
0.121427152099
0.11989933195
0.118475248089
0.117159630768
0.115957424267
0.114873659172
0.113913294064
0.113081049701
0.112381268377
0.111817803514
0.111393795504
0.111111216231
0.110970960193
0.110975157376
0.111129289203
0.111432090948
0.11187920634
0.112464010876
0.113182599813
0.114030214872
0.115001584199
0.116090962512
0.117292177822
0.118598666056
0.120003510361
0.121499521367
0.123079310772
0.124735560695
0.126461164724
0.128249622272
0.130095885178
0.131995183707
0.13394635557
0.135949578057
0.138005675023
0.140123564119
0.142302457163
0.144553770242
0.146880608907
0.149285687012
0.151774511466
0.15434099755
0.15698339643
0.159708005513
0.162496957005
0.165339153664
0.168229804478
0.171154220888
0.174104854627
0.177071899868
0.180051839157
0.183044494184
0.186054275153
0.189089821873
0.192161592281
0.195278311782
0.19843943801
0.201624221752
0.204773838598
0.207767176241
0.210311393725
0.212508656285
0.151593690385
0.150927669616
0.149965554365
0.14853292221
0.146869098486
0.144977597256
0.142959285624
0.140859650363
0.138726297647
0.136591630585
0.134480559015
0.132410994454
0.130395901415
0.12844460525
0.126563937996
0.124759152025
0.123034648278
0.121394524579
0.119842952097
0.118384392861
0.117023680094
0.115765990095
0.114616737218
0.11358142075
0.112665447027
0.111873951562
0.111211657549
0.110682764692
0.110290673019
0.110037413737
0.109923966414
0.109953661847
0.110134028295
0.110460556022
0.110926957226
0.111529273011
0.11226315416
0.113123770359
0.114105831721
0.115203616911
0.116411000053
0.117721463812
0.119128093661
0.120623681644
0.122200667787
0.123851554528
0.125568930921
0.127345661917
0.1291769165
0.131056592223
0.132983763973
0.134959074719
0.136981384613
0.139063581955
0.141201869383
0.143409188928
0.145689627928
0.148044586652
0.150479840302
0.15300259893
0.155603849833
0.15827798921
0.16102273193
0.163826536183
0.166680518296
0.169573874948
0.172498989222
0.175450256432
0.178427146607
0.181434634849
0.184483884168
0.18759220325
0.190781241241
0.19407301644
0.197480848068
0.200997092524
0.204564874025
0.208015824306
0.211051346987
0.213612999083
0.14816738503
0.147565574225
0.146680212942
0.145355058519
0.143813422671
0.142052349527
0.140169233263
0.138204400445
0.136203497616
0.134196978331
0.132208761507
0.130256048299
0.128351356222
0.126503712709
0.124719783608
0.123004783542
0.12136320719
0.119799372128
0.118317777923
0.116923296312
0.115621219175
0.114417198638
0.113317115345
0.112326906465
0.111452377414
0.110699022408
0.110071887127
0.109575450777
0.109213323913
0.108987696837
0.108899872332
0.108953894312
0.109157283463
0.109505308725
0.109990042201
0.110608145818
0.111355271287
0.112226585308
0.113216812212
0.11432027577
0.115530920805
0.116842328171
0.118247604088
0.119739625024
0.121310654268
0.122953068073
0.124659305475
0.126421237191
0.128234919675
0.130092440159
0.131993055077
0.13393839382
0.135924015961
0.13796730553
0.140061315978
0.142218647424
0.144445514102
0.146748668901
0.149132790403
0.151591752238
0.154131579602
0.156745163617
0.159425899852
0.162163928324
0.164949465933
0.167772793925
0.17062656397
0.173506844985
0.176415043436
0.179359216926
0.182355067222
0.185426283772
0.18860325286
0.191918786276
0.195396917998
0.199037215806
0.202748261045
0.206274089846
0.209788853411
0.21371308833
0.144915832025
0.144371752499
0.14355706705
0.142332670556
0.140905853338
0.139268339646
0.137513782661
0.135677449014
0.133802958249
0.131918669507
0.130047414199
0.12820559908
0.126405269342
0.12465517857
0.122961894877
0.121330691654
0.119766264204
0.118273249921
0.116856556359
0.11552151522
0.114273894551
0.11311980865
0.112065565305
0.111117483217
0.110281703724
0.109564021835
0.108969759622
0.108503629809
0.108169416017
0.107969573605
0.10790602962
0.107983340936
0.10820781185
0.108575265041
0.109076488874
0.109708357352
0.110466484505
0.111346009038
0.112341667327
0.113447836318
0.114658532975
0.115967510718
0.117367857816
0.118852682327
0.120414025922
0.122044140941
0.123735658323
0.125478869421
0.127271582516
0.129103717136
0.13097424519
0.132886285335
0.134830863108
0.136829571443
0.138875844034
0.140979060246
0.143156029641
0.14539329062
0.147708882536
0.150099277702
0.152563477564
0.155095548076
0.157687308865
0.160328341717
0.163007569472
0.165714387528
0.16844033928
0.171180585067
0.173935520571
0.176712204852
0.179525486746
0.18239853482
0.185361815227
0.188448267911
0.19167848567
0.195029489262
0.198285477902
0.201368796907
0.205005784113
0.211100415125
0.141854280356
0.141361708407
0.140611450597
0.139480304883
0.138159928168
0.136637808564
0.135003738065
0.133288153069
0.131532665342
0.129763473153
0.128002277171
0.126264636746
0.124562112475
0.122903203393
0.121294428874
0.119741185915
0.118248436625
0.11682119219
0.115464800023
0.11418505664
0.112988184214
0.111880714985
0.110869325222
0.109960651012
0.109161108587
0.108476745253
0.107913132396
0.107475190748
0.107166794205
0.106990620006
0.106949618201
0.107049292131
0.107293144899
0.107678035955
0.108193730369
0.108837191456
0.109603954958
0.110489082237
0.111487304264
0.112593063258
0.113800399874
0.115103370272
0.116494895088
0.117968515729
0.11951599909
0.121129390075
0.12280209032
0.124522117103
0.126289637142
0.128092249186
0.129927623986
0.131801244134
0.13370171457
0.135647863616
0.137652121894
0.139694042824
0.141801755035
0.143972191303
0.146211216835
0.148517982312
0.150889044694
0.153317222432
0.155792308801
0.158301844419
0.160832327119
0.163370451135
0.165904469184
0.16842545472
0.170928438647
0.173413253164
0.175884876453
0.178352902542
0.180829212539
0.183321522828
0.185816701317
0.188234206466
0.19022614988
0.19142927345
0.191956953603
0.195733704946
0.138992372831
0.138545449299
0.137853440713
0.136807716212
0.135584957381
0.134169397553
0.132646953093
0.131043543006
0.12939885168
0.127736913592
0.126078302289
0.124437706857
0.122826206056
0.121252061801
0.119721777707
0.118240911261
0.116814721451
0.115448606952
0.114148346796
0.112920171045
0.11177070497
0.110706834377
0.109735534362
0.10886369119
0.108097937187
0.107444527039
0.106909259831
0.106497250079
0.106212356664
0.106057339642
0.106036843305
0.106159022008
0.106421375922
0.10682077296
0.107348633183
0.108001368575
0.108774321013
0.10966237745
0.110660222259
0.111762409828
0.112962847138
0.11425612654
0.11563471201
0.117092840374
0.118622042048
0.120213975685
0.12186337439
0.12355526566
0.125292149049
0.127059735133
0.128853996527
0.130681679121
0.132544129408
0.134435971179
0.136374294806
0.138355730116
0.140391318266
0.142483605556
0.14463472001
0.146842769547
0.149101953076
0.151402590502
0.153731605062
0.156073319758
0.158410472511
0.160725248266
0.163000214758
0.165218977217
0.167366361033
0.169427815729
0.171387518188
0.173224189686
0.174902549729
0.176355692588
0.177447208865
0.177876072678
0.176992455388
0.172289303967
0.156511470262
0.10223278806
0.13633553408
0.135928829277
0.135289121215
0.134320989626
0.13318697722
0.131868925681
0.130448937116
0.128948774444
0.127406316087
0.125843478692
0.124279749917
0.122728951031
0.121201694662
0.11970602124
0.118248437546
0.116834674438
0.115470287769
0.114161045431
0.112913120039
0.111733119789
0.110628005732
0.109604945188
0.108671142552
0.107833673432
0.107099338796
0.106474568282
0.105965366579
0.105577030159
0.105313414737
0.105177422417
0.105175526612
0.105318495707
0.105598342361
0.10600945432
0.106547249036
0.107206968966
0.107983671649
0.108871983274
0.109866466421
0.110961929437
0.112151819569
0.113431659982
0.114793119032
0.116231409014
0.117738012413
0.119303767252
0.120924806869
0.122582552482
0.124281281726
0.126008128045
0.127760278145
0.129542797184
0.131348182408
0.133183638738
0.135055763941
0.13696697393
0.138923224629
0.140927053704
0.142978074925
0.145071926346
0.147199874092
0.149348925594
0.151502287298
0.153640064618
0.155740047057
0.157778376781
0.159729899616
0.161567943795
0.163263177375
0.164780983623
0.166076365104
0.167084511754
0.167703291524
0.167759820755
0.166943804823
0.164666711532
0.159776227217
0.149580055383
0.125908564978
0.0757391317609
0.133886092792
0.133514620446
0.13292158838
0.132023439091
0.130969521023
0.129740024813
0.128413354116
0.127007499701
0.125558681027
0.124086778197
0.122610262144
0.121142107646
0.119692486372
0.118269230189
0.116878855827
0.115527260906
0.114220275185
0.112963994822
0.111764929036
0.110629995903
0.109566419214
0.108581576488
0.107682836821
0.106877410746
0.106172227524
0.105573864445
0.105088495292
0.10472156841
0.104477117194
0.104358627106
0.104373693539
0.104532220748
0.104826714681
0.105248982835
0.105795046832
0.106459616774
0.10723767156
0.10812357464
0.109111620359
0.110197201268
0.111372848377
0.1126355585
0.113976026654
0.115390380773
0.116870150745
0.11840438101
0.119990151221
0.121608279698
0.123260140131
0.124948793664
0.126649848343
0.128376662119
0.130124590481
0.131896557553
0.133697390817
0.135530543571
0.137399377342
0.139304540138
0.141242955657
0.143207114114
0.145184736419
0.147158895072
0.149108440223
0.151008565133
0.15283131785
0.154545832434
0.156118022273
0.157509405107
0.158674582276
0.159556606752
0.16007892591
0.160131546772
0.159547059772
0.158058324725
0.155221810778
0.150277472589
0.141881760808
0.127674139387
0.102692509097
0.0618823745023
0.131644115056
0.131303333803
0.130751733257
0.129916312413
0.128934229212
0.127784645421
0.126542421204
0.125222163106
0.123858592655
0.122469658413
0.121072902733
0.119680487834
0.11830217549
0.116945598434
0.115617280041
0.114323263234
0.113069612342
0.111862695681
0.110709289982
0.109616546234
0.108591871228
0.107642773771
0.106776710803
0.106000953157
0.105322492131
0.104748006936
0.104283801497
0.103935443704
0.103707369008
0.103604354045
0.103635127302
0.103806721528
0.104113498155
0.104545134665
0.105097620931
0.105764773022
0.106541665876
0.107422435569
0.108400850061
0.109473458575
0.110631500301
0.111873732894
0.11318984307
0.114575855493
0.116022980219
0.117518984297
0.119058728683
0.120639252124
0.122242550589
0.123876173154
0.125526338396
0.127193885877
0.128877728062
0.130579718213
0.132303239115
0.134050930155
0.135823944222
0.137620329296
0.139433866892
0.141253428589
0.143062753455
0.144840605572
0.146561160225
0.148194420809
0.149706447486
0.151059152845
0.152209379381
0.153106889812
0.153690738772
0.153883197941
0.153579882704
0.15263382372
0.150829658374
0.147841580416
0.14316413418
0.136000998372
0.12507687606
0.108426389335
0.0825364217304
0.0467209359446
0.129608070166
0.129293859111
0.12877884669
0.127999337123
0.127081323979
0.126003451613
0.124837219891
0.12359422978
0.122307871832
0.120994282159
0.119670174356
0.118346939164
0.117033962621
0.115738683913
0.114467622064
0.11322693342
0.112022867151
0.110861998816
0.109751297149
0.108698064587
0.107709807378
0.106794082429
0.105958353064
0.105209871826
0.104555625935
0.104002371547
0.103556551081
0.103223783468
0.103008910301
0.102918858952
0.102964493801
0.103147182988
0.103464423395
0.103903475269
0.104460437719
0.105127680648