/*--------------------------------*- C++ -*----------------------------------*\
| =========                 |                                                 |
| \\      /  F ield         | OpenFOAM: The Open Source CFD Toolbox           |
|  \\    /   O peration     | Version:  v1806                                 |
|   \\  /    A nd           | Web:      www.OpenFOAM.com                      |
|    \\/     M anipulation  |                                                 |
\*---------------------------------------------------------------------------*/
FoamFile
{
    version     2.0;
    format      ascii;
    class       volScalarField;
    location    "300";
    object      pa;
}
// * * * * * * * * * * * * * * * * * * * * * * * * * * * * * * * * * * * * * //

dimensions      [0 2 -2 0 0 0 0];


internalField   nonuniform List<scalar> 
6400
(
-0.347869869086
-0.348912982778
-0.355369776247
-0.345147622678
-0.327489062307
-0.302047732377
-0.253014792988
-0.1918090092
-0.131158399504
-0.0768987919973
-0.030573415413
0.00743017934751
0.0369235071892
0.0580394039189
0.0713598084984
0.0778052129802
0.0784254392676
0.0742470443315
0.0662034911375
0.055121979994
0.0417215096842
0.0266165394366
0.0103176785184
-0.00675891972947
-0.0242827197222
-0.0419937755336
-0.0596920855198
-0.0772238298451
-0.0944726581184
-0.111348347525
-0.127779185308
-0.143699059351
-0.159027007595
-0.173621218765
-0.187207515147
-0.199523881713
-0.211479940881
-0.228391627225
-0.254707903881
-0.290985663117
-0.335326166465
-0.385462958853
-0.440113084692
-0.498743559007
-0.561055265214
-0.626717030011
-0.695298138001
-0.766246072902
-0.838852587864
-0.912219241607
-0.98523183502
-1.05655258168
-1.12462623359
-1.18771367869
-1.24395074735
-1.29144917769
-1.32842829271
-1.35338392743
-1.36526595424
-1.36365287616
-1.34888087317
-1.3221055956
-1.28526122597
-1.24091390785
-1.1920128284
-1.14157900674
-1.09237835319
-1.04664580371
-1.00591068597
-0.970957917256
-0.941917241581
-0.918449103119
-0.899948198245
-0.885715977113
-0.875024888137
-0.867163489299
-0.861347502511
-0.856818916239
-0.853248920542
-0.852193989305
-0.397617557731
-0.401172520767
-0.385226073776
-0.359803089599
-0.28913504658
-0.166036897328
0.00386585410408
0.216766389553
0.462399566647
0.730109085102
1.01157361646
1.30002252607
1.58946110644
1.87473175557
2.15176734729
2.41760362672
2.67019363236
2.90819698244
3.13082073755
3.33770980239
3.5288543868
3.70450953757
3.86511898328
4.01125623969
4.14357253649
4.26276144565
4.36952475035
4.46455144894
4.54849420189
4.62195763643
4.68548216046
4.73953786653
4.78450789733
4.82068387054
4.84835753998
4.86862094461
4.88604319658
4.91010094821
4.94059911016
4.96877929076
4.98930624386
5.00093152744
5.00329539825
4.99564837631
4.97685944066
4.94554741093
4.90009853448
4.83865517089
4.75913072812
4.65926247309
4.53670094465
4.38913907236
4.21449448488
4.01114148169
3.77819812145
3.51583455739
3.22558398867
2.91058437242
2.57571055386
2.22751234493
1.87393775467
1.52380922959
1.18611388231
0.869178024099
0.579873772145
0.322984584012
0.100868001443
-0.0865337062331
-0.24133127153
-0.367086726093
-0.468114516601
-0.548849080597
-0.613413319349
-0.665404040987
-0.707860293028
-0.743273388267
-0.773282085871
-0.798691910434
-0.81565157276
-0.832143756395
-0.491358289152
-0.434381364123
-0.403972683186
-0.388915611405
-0.334337220622
-0.250139937535
-0.1475008934
-0.0264485518956
0.107784938687
0.24646007347
0.382851615399
0.512656498031
0.632757105593
0.740819636366
0.835387228804
0.915851661835
0.982256556439
1.03508435988
1.07510532648
1.10327670317
1.12066941686
1.12840552958
1.12760872456
1.11936440565
1.1046934083
1.08453237185
1.05972348952
1.03100658534
0.999017565794
0.96428726441
0.927244780389
0.888221087341
0.847446004949
0.80501502177
0.760593909329
0.712420376931
0.655224581157
0.588484191468
0.518828781258
0.450939507011
0.385320783465
0.321072411379
0.25796219339
0.196362031409
0.136928114998
0.0805124667739
0.0281440767774
-0.0190230354352
-0.0597945735757
-0.093047100303
-0.117865200342
-0.133706487777
-0.140584866298
-0.139249492295
-0.131327587472
-0.119383762528
-0.106853738045
-0.0978079019361
-0.096539246112
-0.106995085741
-0.132139570944
-0.173359744676
-0.23006824833
-0.299619667499
-0.377617645746
-0.458578354577
-0.536836439295
-0.607478190983
-0.667087133212
-0.7141131852
-0.74880002647
-0.772756433519
-0.788306615286
-0.797927957915
-0.803774333983
-0.807590129455
-0.809952826337
-0.811439286723
-0.805612085444
-0.821269377469
-0.626965407792
-0.399377230133
-0.441894696559
-0.441765028836
-0.332479816094
-0.208891777727
-0.0896750778677
0.0389913388322
0.17794787852
0.320856464564
0.46344362313
0.603750914957
0.740399953795
0.87215665786
0.998125381696
1.1178218496
1.23107712682
1.33792324037
1.43851801624
1.5331031095
1.62197254512
1.70544822219
1.78385726133
1.85751690887
1.92672187823
1.99173854594
2.05279934189
2.11010193323
2.16380689489
2.21403832503
2.26088250143
2.30438249175
2.34453870022
2.3812925161
2.41473259009
2.44544633827
2.47554101495
2.49871999745
2.51214659176
2.51789400469
2.51633645442
2.50607901507
2.48569822458
2.45412680183
2.41041515631
2.35363006019
2.28291927781
2.19761851892
2.09736067591
1.98219318718
1.85270001546
1.71010618504
1.55633879862
1.39400932332
1.22629472237
1.05669535958
0.888687565907
0.725306726069
0.568753115198
0.420116233663
0.279330433487
0.145409721438
0.0169530857969
-0.107200763688
-0.227344895191
-0.342515539032
-0.45049539381
-0.54825017655
-0.632684365749
-0.701491883965
-0.753783488445
-0.790352492873
-0.813360750006
-0.825857981955
-0.830833493108
-0.830919269009
-0.826790784078
-0.819247743163
-0.798524658705
-0.816374684255
-0.756002707781
-0.219059764636
-0.376999934466
-0.361082671539
-0.194309886909
-0.0605292870577
0.0400439191064
0.139994322585
0.244165445111
0.34810723024
0.44979519656
0.548764973796
0.644302532255
0.735370324203
0.820996520703
0.900437596563
0.973168736524
1.03884535088
1.09727975686
1.14842389251
1.19235137662
1.22923568125
1.25932875499
1.28293911577
1.30041322182
1.31211731006
1.31842287114
1.31969211608
1.31626662374
1.30845571046
1.29652670016
1.28069671217
1.26111851557
1.23787935997
1.21090601962
1.18006487622
1.14553776578
1.11100615496
1.076874721
1.04384559117
1.01249378952
0.982789320024
0.954597336304
0.927939972249
0.902879001454
0.879366397228
0.857172033063
0.835836727363
0.814623806034
0.792486452153
0.768074322419
0.739798008855
0.70595732577
0.664935128055
0.615434063386
0.556720444567
0.488809856568
0.412533153566
0.329427556233
0.241453509737
0.150590918496
0.0584394572959
-0.0340348488746
-0.126483831264
-0.218867408321
-0.310936696463
-0.401716649378
-0.489223732156
-0.570589116047
-0.642627648555
-0.702616409598
-0.749108755585
-0.782194073624
-0.803477294726
-0.815240764846
-0.820022766509
-0.818395019083
-0.811342838199
-0.785717942366
-0.811971786931
-0.907057377044
0.103882878188
-0.222725753584
-0.197126165898
-0.0178379384616
0.085120281238
0.148621715615
0.215558234742
0.289288977301
0.365702329803
0.443755689518
0.523215812387
0.603209719526
0.682512678629
0.759974515094
0.834658714166
0.905844081988
0.973007771907
1.03581024677
1.09407711833
1.1477750133
1.19698536317
1.24187720417
1.28268221745
1.31967107649
1.35313364794
1.38336112597
1.41063232541
1.43520156865
1.45729059306
1.47708155235
1.49471474394
1.51028992082
1.52388140344
1.53555920598
1.54523204512
1.55135888838
1.55249024401
1.54809037044
1.53786260265
1.52158404629
1.49886583415
1.46924491446
1.43237969616
1.38811804609
1.33649979103
1.27777150135
1.21240532389
1.14109379235
1.06470901605
0.984230060796
0.900642456194
0.81482529429
0.727446186062
0.638899204014
0.549313534106
0.458652477262
0.366885277855
0.274183974169
0.181062756884
0.0883855685595
-0.00279565449876
-0.0915278092702
-0.177248820514
-0.259928953037
-0.339933240806
-0.41761291259
-0.492765465931
-0.564210613091
-0.6298149844
-0.686910610196
-0.733217368264
-0.767532287624
-0.790313187673
-0.803144721969
-0.808464271113
-0.807115029299
-0.800129018253
-0.773632915078
-0.809528738028
-1.07341948414
0.550838446374
-0.0344983890869
-0.00945513385545
0.142095255895
0.193398076958
0.218842227402
0.257552563127
0.307113561111
0.362790074544
0.423423701207
0.488133785982
0.555441093373
0.62371583554
0.6914959738
0.757555256277
0.820895008263
0.880732243173
0.93648678997
0.987761743981
1.03431914994
1.07605372841
1.11296733837
1.14514417389
1.17272812458
1.19590175733
1.2148682251
1.22983500612
1.24100055138
1.24854252191
1.25260867244
1.25330929
1.2507109125
1.2448319581
1.23564502894
1.22323206807
1.20865608822
1.19247439613
1.1748008956
1.15574030753
1.13540701664
1.11378563559
1.09069837601
1.06586955841
1.03895966339
1.00955462082
0.97715920236
0.941217423927
0.901154789022
0.856437013521
0.806638038459
0.751507531228
0.691018336199
0.625378268591
0.554995699281
0.480408708968
0.402203037932
0.32095866844
0.237256704528
0.151749165008
0.0652522957811
-0.0212132366519
-0.10650337851
-0.189564359976
-0.269704615147
-0.346752458055
-0.420953644356
-0.492550672556
-0.561141295496
-0.62526032506
-0.682270245508
-0.729323321984
-0.764138392522
-0.786199625229
-0.797112935105
-0.800092959039
-0.797411154102
-0.789852966413
-0.768057229637
-0.812931734285
-1.24753984777
1.10773847748
0.144438692792
0.170116695168
0.268434210927
0.267310185069
0.264857707926
0.285409087827
0.320348766531
0.364495567809
0.41619033397
0.473768406576
0.535260322168
0.598796691448
0.662772736101
0.725852366802
0.786947037709
0.845201974733
0.899980907778
0.950844299894
0.997524032877
1.03989778908
1.07796371939
1.11181573841
1.14161937298
1.16758922398
1.18996803867
1.20900837816
1.22495635841
1.23803861109
1.24845090579
1.25635141686
1.26185248446
1.26502347665
1.26585859572
1.26425624027
1.25971180358
1.25174251207
1.24005061027
1.22439824388
1.20459455501
1.1804767003
1.15191604194
1.11886363535
1.08138464457
1.03965454094
0.993930978364
0.944515435508
0.891710200094
0.835775399901
0.776898974905
0.715190407464
0.650704389796
0.583487370475
0.513631727877
0.441314996529
0.366808099137
0.290450437729
0.212614367426
0.133689143289
0.0541127785998
-0.0255700444134
-0.104675308747
-0.182451347623
-0.258286560351
-0.33195511001
-0.403727779393
-0.474148362889
-0.543256164269
-0.609909811032
-0.670944730696
-0.721836588567
-0.758666320643
-0.779852051378
-0.787775143574
-0.787822172771
-0.784853423468
-0.780055374245
-0.772617798314
-0.822383733319
-1.40768860893
1.75858857183
0.28258193837
0.333143078084
0.366779485612
0.324418749674
0.305197019042
0.314841722983
0.340972272961
0.378376693587
0.424760135928
0.477771037741
0.535124995775
0.594826953942
0.655213690066
0.714914640417
0.772815120056
0.828037092432
0.879919502025
0.927993563995
0.971958162437
1.01165696238
1.04705607657
1.07822091495
1.10529264133
1.12846482323
1.14796154214
1.16401724047
1.1768593587
1.18669347359
1.19369102024
1.19797969529
1.19963569409
1.19868591311
1.19512391518
1.18900074414
1.18045632255
1.1694633754
1.15590624009
1.13964931926
1.12053743601
1.09838796838
1.07299417451
1.0441480596
1.01166747661
0.975414257898
0.935305303349
0.891323397698
0.843525095087
0.792040228316
0.737059419517
0.678813841688
0.617554666443
0.553541505791
0.487045204711
0.418362122837
0.347831140824
0.275834562288
0.202782521415
0.129077920433
0.0551081419815
-0.0187430293474
-0.0920477856925
-0.164340354497
-0.235255460848
-0.304813270527
-0.373652612609
-0.443054812421
-0.513774556449
-0.584913703383
-0.652025796427
-0.707590511229
-0.744820999706
-0.761759801664
-0.76429996849
-0.762806224451
-0.765441499297
-0.773540207485
-0.788245117837
-0.832613822364
-1.53723259729
2.47251907365
0.356481835386
0.484194647041
0.447068824947
0.377884484108
0.349078369853
0.351566019498
0.372019073204
0.405183317432
0.448041324093
0.497693386232
0.551690640333
0.607990064562
0.664946671668
0.721232592937
0.775778195666
0.827747070254
0.876509630564
0.921615094021
0.962770813256
0.999826277907
1.03275654271
1.06164220253
1.08664638285
1.10799048907
1.12593027236
1.14073368763
1.15266161053
1.16195188371
1.16880535646
1.17337583368
1.17575909106
1.17599364407
1.17403440786
1.16978289898
1.16303638471
1.15354186989
1.14104373464
1.12529427698
1.10606945585
1.08318293006
1.0565023045
1.02596737562
0.991601470755
0.953504875224
0.911832443683
0.86676680406
0.818499104194
0.767220719545
0.713124170289
0.65640810847
0.59728327489
0.535976490927
0.472734294646
0.40782462709
0.341543181385
0.274208752121
0.206163058714
0.137733980697
0.0692281140205
0.000909693894359
-0.0669502889173
-0.13408074764
-0.200292815154
-0.265954275751
-0.332137381074
-0.401502180305
-0.475661967317
-0.553129971398
-0.626174037538
-0.681982220857
-0.711644595135
-0.717962536293
-0.716278911856
-0.72411442595
-0.747457652075
-0.77803656129
-0.808510703407
-0.83909149155
-1.62343122238
3.21238455237
0.35780615069
0.636443705506
0.517271714822
0.434632501643
0.399041779005
0.396086371865
0.412488551921
0.442533976853
0.482441977911
0.528889106318
0.579372368186
0.631841910907
0.684738150879
0.736830908429
0.787137720289
0.834897040296
0.879529663931
0.920608427662
0.957848643084
0.991105009046
1.02036340627
1.04572365857
1.06737515385
1.08556955522
1.10059292709
1.11274038635
1.12229495569
1.12951068231
1.13459761875
1.13771007454
1.13893352867
1.13828384404
1.13569449149
1.13109621425
1.12437994373
1.11532540017
1.10365921938
1.08909202214
1.07133905216
1.05014001412
1.02528232481
0.996626762532
0.964129313023
0.927850364247
0.887945111141
0.844639234224
0.79819890208
0.748904906382
0.697035463362
0.642858640935
0.586634545954
0.528622284675
0.469091528379
0.408323634181
0.346619534548
0.284277085963
0.221599252549
0.158836852363
0.0962047957125
0.0338151958901
-0.028225951788
-0.0899024036515
-0.151099465157
-0.212949686865
-0.277296864711
-0.348310701153
-0.428533201777
-0.512828081693
-0.585707570587
-0.629687727272
-0.642068746616
-0.641491398364
-0.65589013167
-0.697471800432
-0.750101414574
-0.790305156263
-0.81682899943
-0.839070682594
-1.66080205511
3.94079197613
0.291637092063
0.803016302611
0.579349195211
0.496275398128
0.453813491786
0.446718077838
0.460105024073
0.487575224321
0.5246432578
0.567699273908
0.614281580009
0.662365345875
0.71056141055
0.75777964899
0.803154615929
0.846020891046
0.885851151953
0.922231571574
0.954878950482
0.983657876582
1.00858172285
1.02979367923
1.04753635421
1.06211719094
1.07387423107
1.08314640844
1.09025209129
1.09547281415
1.09903861382
1.10111565345
1.10179209417
1.10107567562
1.09886853238
1.09503312557
1.08936328962
1.08156906316
1.07131725759
1.05825619285
1.04204044155
1.02236550927
0.999008472524
0.971859341046
0.940931246805
0.906348645153
0.868322190404
0.827119820811
0.783040308372
0.736392131724
0.687479715104
0.636594373241
0.584014722229
0.530008666498
0.474851389106
0.418823174292
0.362232685556
0.305371035864
0.24854673836
0.19197118182
0.135811570723
0.0800281499217
0.0246638255808
-0.0306974091336
-0.0861212924027
-0.143491136124
-0.207105407471
-0.282719038094
-0.369859440917
-0.454236294205
-0.513328178166
-0.53711654058
-0.544619237039
-0.571456262534
-0.635189449952
-0.714832597049
-0.773456842552
-0.799374754424
-0.810243695504
-0.836166773661
-1.64965082134
4.62653607179
0.173344139227
0.992288122563
0.630792983655
0.562648107709
0.511311936057
0.501692564777
0.512717836895
0.537844577455
0.571938530862
0.61126133841
0.653456677472
0.696557765732
0.739449611406
0.78119242857
0.821053494161
0.858465738038
0.892924627475
0.923996497494
0.951387545635
0.974985095177
0.994860041959
1.01123420956
1.02443427133
1.03484529584
1.04286704491
1.04888143917
1.05323454757
1.05622483906
1.05809018128
1.05899648333
1.05902436904
1.05816491917
1.05629873682
1.05325465321
1.04878668052
1.04257379408
1.03425814401
1.02345586702
1.00976170935
0.992773878986
0.972155337172
0.947709882902
0.919428188033
0.88747725712
0.852147665865
0.813793072362
0.772782818372
0.729474040251
0.684202457095
0.63727836558
0.5889955637
0.539628551129
0.48946022094
0.43876471085
0.38787031545
0.337068154535
0.286700059558
0.236967866419
0.188083922329
0.139874356014
0.092258276524
0.0448915501761
-0.00355065997301
-0.057120861994
-0.122551897991
-0.203984508951
-0.292315021623
-0.365183310615
-0.407051937862
-0.432337206434
-0.478817099884
-0.566918693007
-0.672557790439
-0.753084351438
-0.792465879531
-0.799436025417
-0.79812880871
-0.838457526349
-1.5948865585
5.24743171847
0.0230921924391
1.20556353537
0.667316093118
0.633674655455
0.569457278339
0.55947334724
0.568402221232
0.59127330451
0.622171566633
0.657423217838
0.694781634126
0.732403330485
0.769557492667
0.805414849858
0.839391781376
0.870998330727
0.899689049401
0.924969228974
0.946545939011
0.964378121021
0.978658052085
0.989740750866
0.998073210075
1.00413252052
1.00837464209
1.01120437309
1.01297208753
1.01397031298
1.01442439325
1.01448241629
1.01420736431
1.01357322658
1.01244869659
1.01061634774
1.00775409374
1.00347001008
0.997339095762
0.988939388514
0.977871697218
0.963757951436
0.946252726795
0.925099523677
0.900206205153
0.871682055284
0.839813267584
0.805000846565
0.767688923744
0.728306172686
0.687243043587
0.644840161047
0.601410523087
0.557229535686
0.512596219622
0.46778162577
0.423146902766
0.379008291816
0.33579151494
0.293811981283
0.253169580121
0.214115421085
0.176071362534
0.137695478715
0.0958706252943
0.0436900137453
-0.0256447705703
-0.110024394509
-0.192674838777
-0.25598471981
-0.3066128057
-0.377319012825
-0.489586780298
-0.619101562369
-0.71914975946
-0.772462742513
-0.793608488393
-0.789610007694
-0.780188778851
-0.841985449335
-1.50400654183
5.79091314136
-0.138843151656
1.4378750439
0.685679879684
0.709914882936
0.626287437868
0.618827465985
0.625488522297
0.646165315435
0.673642073797
0.704556485988
0.736699131624
0.768495104505
0.799666870919
0.829400719874
0.857303112306
0.882895810267
0.905491465085
0.924518826176
0.939760226466
0.951354869895
0.959713586833
0.965380925715
0.968939614018
0.970939773059
0.971847826173
0.972035897932
0.971809461898
0.971413960719
0.971024630325
0.970736510862
0.970563274487
0.970442086751
0.970246575128
0.969773784536
0.968744682447
0.966796054886
0.963433818863
0.958050073255
0.950035802674
0.938912243509
0.924388318413
0.906344839684
0.884800240402
0.859890280098
0.831863228784
0.801078826185
0.767977107852
0.733016038106
0.696634524928
0.659208362408
0.621086862797
0.582552077127
0.543920209276
0.505475389848
0.467634984904
0.430888261851
0.395563399067
0.362609561667
0.332019373405
0.303438946638
0.275946518983
0.246313780527
0.208699402824
0.154706667516
0.0806036134394
-0.00546859103279
-0.0885632772163
-0.167587403528
-0.264971132592
-0.400163907546
-0.553043955648
-0.674911779894
-0.742497372876
-0.77437417644
-0.787596511037
-0.775770792351
-0.758881571331
-0.846797250229
-1.38558594369
6.25275981583
-0.295408661476
1.68019548812
0.685185766331
0.792000781141
0.679861726508
0.678790424216
0.682508952913
0.701126151778
0.725000129738
0.751403206539
0.778035594849
0.803851908918
0.828972488634
0.852489069488
0.874284389203
0.89373657083
0.909900525349
0.922204302999
0.930690510922
0.935849623209
0.938410723372
0.939122095827
0.938660411482
0.937566503005
0.93621949255
0.9348740826
0.933739212185
0.932979344792
0.932692599197
0.932889646225
0.933485458687
0.934289813017
0.935052034855
0.935484138831
0.935347600284
0.934547305885
0.932958332604
0.930173995152
0.925451113424
0.917937827241
0.907007837844
0.892439459012
0.874357976185
0.853068119574
0.82892715008
0.802326567152
0.773701837998
0.743498060663
0.712170673022
0.680108707585
0.647681612128
0.615186567527
0.582959142888
0.551415205316
0.520842634886
0.492361662879
0.466430779348
0.443636939988
0.424292283863
0.407192932275
0.389892529718
0.366646557384
0.329025782179
0.268974064706
0.18628628844
0.0895165805449
-0.0161755257379
-0.14122607366
-0.29882572064
-0.473985534818
-0.621329030921
-0.708636067373
-0.748013031586
-0.768832180021
-0.777093521237
-0.756950199879
-0.731887578495
-0.847457064083
-1.24800399155
6.63508073295
-0.43432696568
1.92206526325
0.667882116033
0.879920802458
0.728412345332
0.738669569019
0.738179525646
0.755033198061
0.775179957013
0.796968403914
0.817890946481
0.837784896438
0.856899767518
0.874217546779
0.890001616358
0.903176767745
0.912485786476
0.917619649775
0.919194614941
0.918229159465
0.915787736359
0.912734422105
0.909697570089
0.907050064823
0.904947690661
0.903439315794
0.902590483653
0.902492361325
0.903218131296
0.904782321124
0.907118530107
0.910035382581
0.913182571029
0.915967515
0.917577090664
0.917638034754
0.916180331302
0.913382592447
0.909220117847
0.903223112067
0.894711295002
0.883207636029
0.868601850138
0.851079879462
0.830975459592
0.808702090679
0.784729739167
0.759511784009
0.733508421117
0.707115052836
0.680700959678
0.654657035108
0.629135776259
0.605036708833
0.582817648464
0.563360755059
0.54774890312
0.536360714177
0.528946485309
0.522975386814
0.513464953019
0.491674287287
0.447386639441
0.373676531565
0.271527653841
0.145499744152
-0.00571799968948
-0.186339073839
-0.383199812209
-0.557181394646
-0.671275811209
-0.724820959552
-0.747297387513
-0.761318163805
-0.764243222568
-0.736114055459
-0.705964013902
-0.847721515226
-1.09882224774
6.94410992334
-0.548282753901
2.15371695066
0.637836939394
0.972599561304
0.770623122109
0.79797234605
0.791382339725
0.807012458744
0.823344367309
0.840450365173
0.855589667984
0.869812226153
0.882993696761
0.894244238368
0.904204870145
0.910847901616
0.912778229295
0.910480096967
0.905510709143
0.899452204845
0.893523387915
0.888463289925
0.884587843072
0.881938847393
0.88037178003
0.879668914921
0.879616375817
0.880184630187
0.88141874598
0.883354143932
0.886028407705
0.889447134431
0.893547407184
0.898051101868
0.902409552463
0.905763536506
0.907242632455
0.906202416934
0.90269168013
0.897027193969
0.889306320537
0.879488691869
0.867528430055
0.853454987515
0.837390404617
0.819602689421
0.800496877751
0.780508923194
0.760093602716
0.739718648141
0.719555822163
0.700331028753
0.682288638775
0.666048350277
0.65267832775
0.643217492154
0.63881034656
0.639448984367
0.643540016949
0.64621815246
0.639176014382
0.61076952791
0.549841859815
0.450406980325
0.313184628031
0.141102981085
-0.0620585900064
-0.281407093749
-0.482415156211
-0.62670200733
-0.702773126671
-0.733036663541
-0.746964671981
-0.757035172805
-0.756978547926
-0.72977718895
-0.714468149644
-0.888238367092
-0.944332771835
7.18833409193
-0.634220006619
2.36739874265
0.600066394081
1.06794136393
0.805866443216
0.856279279205
0.841183312296
0.856424694975
0.868843334646
0.881210869935
0.890665128434
0.899588854747
0.90685684707
0.912323287631
0.916663345585
0.916302905109
0.910331426727
0.900763656948
0.89030315605
0.880837108009
0.873345654094
0.868085066828
0.86477724816
0.863182509359
0.862913641295
0.863497157641
0.864625266015
0.866320911723
0.868550253067
0.871160373894
0.87403930818
0.877135208976
0.880456972004
0.884019854361
0.887747714091
0.891792539372
0.895777975732
0.898365118405
0.897923684699
0.894351795637
0.888285214394
0.880297031462
0.870749662233
0.859855320646
0.847705395386
0.834446412729
0.82037406099
0.805915129549
0.791309199521
0.777265538687
0.763979875941
0.751820980877
0.741434242525
0.733610610508
0.729722788694
0.731032880159
0.738338765128
0.750500036335
0.763603826985
0.769502761435
0.756303814275
0.710140672828
0.619897365156
0.481114503901
0.296485527015
0.0745400413029
-0.166868245025
-0.395397982662
-0.572645531473
-0.678074462521
-0.724548307968
-0.74370103917
-0.755578596571
-0.764610435624
-0.765838365367
-0.755515274516
-0.787734905945
-1.01204572202
-0.789583532272
7.37702305069
-0.692269211541
2.55788843167
0.559538832507
1.16319326545
0.834264925342
0.913116097079
0.886877988911
0.902840043575
0.911177386806
0.918769365263
0.92284796714
0.926845954224
0.928145981877
0.928320611286
0.927144759492
0.91907769291
0.904864002839
0.888715692235
0.874345633353
0.863460579217
0.856486722708
0.852913711154
0.85178306108
0.852621236095
0.854699528832
0.857338511347
0.860199349041
0.863164386752
0.866183262063
0.869226518235
0.872278992841
0.875322807821
0.87835253471
0.881366816317
0.884364694066
0.887321250903
0.890202557884
0.892983875974
0.894384079596
0.892883124987
0.888973467432
0.883452522908
0.876755236191
0.869251043733
0.861139698185
0.852621600848
0.843729959716
0.835066901962
0.826826688372
0.819342697644
0.813026083254
0.808231317951
0.805796520616
0.806895327773
0.813121987007
0.825581859693
0.844056209518
0.865303524921
0.882141630003
0.882663814223
0.851894060727
0.775124875297
0.643050391301
0.45520535647
0.220950729849
-0.0398240654084
-0.295367102906
-0.507430439616
-0.648612243983
-0.720038964632
-0.750573447237
-0.766015771357
-0.775958443348
-0.781989291921
-0.784258350992
-0.791466312818
-0.84261391499
-1.02765050774
-0.638325075282
7.51927337606
-0.724614661849
2.72241345871
0.52048774097
1.25542855813
0.856574748354
0.967888980607
0.928039926085
0.945990853576
0.949969477328
0.952811107561
0.952039474101
0.951349134727
0.946620467311
0.942265887869
0.935470490855
0.918793368779
0.896223487878
0.874608110577
0.858466948355
0.848840018495
0.844993581463
0.845350128683
0.84776511528
0.850970740719
0.854315330867
0.857583429233
0.860780679638
0.863900113627
0.866955163255
0.869966782233
0.872951468943
0.875922442447
0.878894236261
0.881882759954
0.884857027266
0.887608232496
0.890059351468
0.892054718453
0.89317507438
0.892952069335
0.89088328343
0.887896359068
0.884424759557
0.880667280141
0.876843985084
0.873369285588
0.870172699485
0.867532523854
0.865812454945
0.865162456357
0.865953120445
0.868727371553
0.87461942568
0.885109374821
0.901721075964
0.924764002671
0.952119438724
0.977504724598
0.989907226012
0.973957710877
0.913009371661
0.793746694686
0.611433970532
0.373068101778
0.0982848609595
-0.181567924138
-0.428246493999
-0.60887230275
-0.71224297998
-0.758471328356
-0.777666586041
-0.78529008463
-0.78619639225
-0.782608122846
-0.779882460395
-0.779063407805
-0.708146354769
-0.396098687982
-0.493268834774
7.62339400503
-0.734557294745
2.8602264246
0.486076338711
1.34197338671
0.87396114457
1.01990110105
0.964538289835
0.985714579303
0.984954140744
0.983197622243
0.978263205287
0.972875951141
0.962224206232
0.954415681212
0.941544161001
0.915070210141
0.884257033861
0.859283449217
0.845062258554
0.840542317215
0.841543846444
0.84460060577
0.848161096582
0.851782589101
0.855332682253
0.858683618236
0.861831986171
0.864846528711
0.867780904863
0.870669874767
0.873545492074
0.876428448731
0.87932989222
0.882255610264
0.885179983175
0.88805207988
0.890774195642
0.892685284913
0.893578501849
0.893872820847
0.893620581518
0.893101829666
0.893034430993
0.893405392746
0.894359726962
0.89620764015
0.898975961434
0.902742599351
0.907715445005
0.913996120051
0.922024413613
0.932602785531
0.947148768988
0.967184330869
0.993622269669
1.02517100636
1.05692306932
1.078938692
1.07651334244
1.03204529111
0.929505971156
0.759845447308
0.525911906837
0.244655371669
-0.0539131327146
-0.331710393854
-0.551907645367
-0.692142168499
-0.759203895102
-0.783117860293
-0.786444552308
-0.779872345529
-0.767918166655
-0.753435676393
-0.738602320541
-0.704447985593
-0.550077531487
-0.197909271691
-0.356168856587
7.69658533323
-0.725766813385
2.97207359508
0.458364065641
1.42069426133
0.887757505927
1.06842832817
0.996510117975
1.02190440869
1.01598993797
1.00996620176
1.00159585879
0.991225201138
0.975159235152
0.965204985419
0.945131693027
0.907362391643
0.86967398624
0.846108365801
0.838220848952
0.838760533476
0.841852440599
0.845440064236
0.84910013364
0.852748371683
0.856318621014
0.859688996031
0.86276761975
0.865662087158
0.868467550762
0.871217681893
0.873974763043
0.87676551523
0.879597305644
0.882452683238
0.885292985592
0.888118263225
0.89085206357
0.893107011194
0.894414545601
0.895080147524
0.896425712879
0.898674112347
0.902316097603
0.907088405576
0.913239174532
0.920869016912
0.929860387323
0.940197178751
0.95193929805
0.965204768339
0.980595395668
0.999160266805
1.02240767905
1.0514475017
1.08587545846
1.12197576221
1.15141837984
1.16059120972
1.13210073549
1.0482097533
0.896338400093
0.674566734686
0.395427233134
0.0859902848354
-0.216477658204
-0.472840634418
-0.652787077564
-0.748302936302
-0.783512217494
-0.786926977607
-0.776043443814
-0.758846068158
-0.738040217723
-0.714589160883
-0.684557850582
-0.617546599643
-0.438885298068
-0.164894168483
-0.228129511666
7.74482828001
-0.701816793779
3.0596784152
0.438457635761
1.49012776706
0.899263162094
1.11280926062
1.02429304387
1.0544888933
1.04308144312
1.03330595109
1.02210484457
1.00626551786
0.985871185832
0.974931360155
0.945550147002
0.895605149255
0.855636974612
0.838489411661
0.836705705271
0.839349827816
0.842778036884
0.846331222323
0.849953363715
0.853595843128
0.857188993815
0.860607831531
0.863697781829
0.866467576221
0.869071719679
0.871650397582
0.874271197789
0.876962487845
0.879718695444
0.882502065482
0.885302070262
0.888123706099
0.890820262309
0.892993548808
0.894449804691
0.895830611558
0.899128097724
0.904549710519
0.912272390635
0.921829058196
0.933496658257
0.947145327375
0.962505155929
0.979454925585
0.997969022912
1.01824162545
1.04104244225
1.06753534334
1.09895586098
1.13540113905
1.17440821746
1.20920470752
1.227898806
1.21394900647
1.14908765136
1.01806665147
0.814530863535
0.545714474738
0.234173500807
-0.0851419543336
-0.372349645493
-0.5919754043
-0.723777397863
-0.77923903021
-0.78968631594
-0.778920681288
-0.759799541252
-0.736622482009
-0.709673161902
-0.678495675405
-0.636239097115
-0.551959540678
-0.380991981274
-0.169365834671
-0.109704695491
7.77293763548
-0.665862892417
3.12531289965
0.42673753904
1.54946829999
0.909604985515
1.15251476148
1.04834130815
1.08343471584
1.06638958967
1.05350296039
1.03982392727
1.01801819864
0.994899804944
0.983364026264
0.941928475397
0.881410718028
0.84497405564
0.835998163106
0.837225509231
0.84029776995
0.843641085371
0.847113780247