/*--------------------------------*- C++ -*----------------------------------*\
| =========                 |                                                 |
| \\      /  F ield         | OpenFOAM: The Open Source CFD Toolbox           |
|  \\    /   O peration     | Version:  v1806                                 |
|   \\  /    A nd           | Web:      www.OpenFOAM.com                      |
|    \\/     M anipulation  |                                                 |
\*---------------------------------------------------------------------------*/
FoamFile
{
    version     2.0;
    format      ascii;
    class       volScalarField;
    location    "300";
    object      pa;
}
// * * * * * * * * * * * * * * * * * * * * * * * * * * * * * * * * * * * * * //

dimensions      [0 2 -2 0 0 0 0];


internalField   nonuniform List<scalar> 
6400
(
0.0979319091359
0.0474336956758
-0.0440070359802
-0.111354375367
-0.115718728397
-0.0652348705119
0.0290155706073
0.134847472172
0.234402715429
0.325812828976
0.408116408985
0.478737290547
0.535851847733
0.579252303004
0.609784169476
0.628733899089
0.637537151046
0.637666332596
0.630545623568
0.61749052521
0.599665540011
0.578076922319
0.553574104582
0.526868063492
0.498545352634
0.469090910823
0.438902934382
0.408313647784
0.37760172324
0.34701097635
0.316764733044
0.287102934449
0.258345539002
0.231019439836
0.205622476328
0.180708568273
0.146692762798
0.0942323791542
0.023495183277
-0.0586557318861
-0.146499545094
-0.237037938544
-0.328914697143
-0.421307313259
-0.513496780705
-0.6048269423
-0.694714294062
-0.782635621649
-0.868095284747
-0.950608489813
-1.02968377658
-1.10481883871
-1.17549044142
-1.24115672685
-1.30125664221
-1.35522407176
-1.40250235226
-1.44257379701
-1.47499003566
-1.4994136834
-1.51565660609
-1.52372128377
-1.52383052283
-1.51645007093
-1.5022912373
-1.48229969029
-1.45762031031
-1.42955039569
-1.39946529051
-1.36875223774
-1.33867497019
-1.31034697172
-1.28435820313
-1.26113059966
-1.2393658443
-1.21935292506
-1.19562385164
-1.17832720288
-1.1508918364
-1.18706629815
-0.0357955567751
-0.129560573608
-0.176656125357
-0.202031568582
-0.151399034287
0.0250974182709
0.288164560776
0.610274814967
0.986613092349
1.40894528078
1.86558222714
2.34415877736
2.83354398172
3.32456423014
3.80991921151
4.28388449375
4.74205956151
5.18117598227
5.59890200855
5.99366095936
6.36445627301
6.71073797561
7.03228276467
7.32911243927
7.60141623908
7.84950534407
8.07376405276
8.27462853688
8.45255730499
8.60802573574
8.74150907286
8.8534764164
8.94437925227
9.01477520601
9.0666462466
9.10817331069
9.15962287868
9.22097958862
9.27297946093
9.30639343843
9.32011239688
9.31427223644
9.28848382312
9.24210650431
9.17454673614
9.08530131332
8.97392901486
8.84003341537
8.6832790293
8.50340261179
8.30023902116
8.07373529885
7.82398617462
7.55126062222
7.25605299736
6.9391241503
6.60156369253
6.24483564952
5.87083332528
5.48190424869
5.08086586085
4.67097599511
4.25587778225
3.83949247692
3.42588436675
3.01908435703
2.62290330371
2.24072922045
1.87534744567
1.52876113062
1.20209600046
0.89543398032
0.608014144572
0.337755683344
0.0830033432258
-0.160602692246
-0.388098823153
-0.608545662741
-0.755927050337
-0.943231624205
-0.123873540732
-0.179881612401
-0.17616026197
-0.160471221737
-0.115677408549
-0.0188182527608
0.12186912044
0.29854868288
0.502017739703
0.721431185958
0.946495577552
1.16871866695
1.38139000722
1.57951728685
1.75974327629
1.92009104857
2.05964577178
2.17827477568
2.27640811784
2.3548567713
2.4146699867
2.45702220972
2.48313585285
2.4942241375
2.49145855345
2.47594527766
2.44871796993
2.41073241406
2.36287227634
2.30595198882
2.24072712978
2.16789353501
2.08803992094
2.00126297514
1.905486579
1.79262926141
1.65838888156
1.51963204096
1.38858423154
1.26450511655
1.14530473786
1.03092737098
0.922217294245
0.820073175083
0.725301809329
0.638628107257
0.560663374926
0.491858243771
0.432465517878
0.382521323983
0.341828235888
0.309947256707
0.286186820726
0.269602540865
0.258995767834
0.252927568436
0.24973694575
0.247581775834
0.244491396417
0.238447473797
0.227479026494
0.209781507319
0.183839736062
0.148555725808
0.103356904471
0.04828090861
-0.0159829135295
-0.0880993058263
-0.166138105953
-0.247700886058
-0.330035142036
-0.410385348487
-0.485962770708
-0.555246463468
-0.616084558231
-0.672162830863
-0.714127727568
-0.762596995854
-0.708692433532
-0.842420154186
-0.308646719118
-0.207562759989
-0.235520728056
-0.247665410546
-0.143209697075
0.00881530288445
0.181800285249
0.380354490974
0.600608508754
0.833616954047
1.07280382262
1.31390518147
1.55346395538
1.78861094643
2.01727029738
2.23812032307
2.45038465637
2.65364844966
2.84773403901
3.0326194308
3.20837265132
3.37510862531
3.53295687482
3.68204755438
3.82250042603
3.95442533683
4.07791984736
4.1930749666
4.29997397612
4.39869828375
4.48931536965
4.57188423186
4.64641514027
4.71318239043
4.77335076766
4.83103067661
4.8754825124
4.90005011018
4.90967974463
4.90567785946
4.88644774297
4.85098024901
4.79919337156
4.73128537378
4.64749079934
4.54812796107
4.43366275833
4.30472242869
4.16209674521
4.00673440151
3.83974474666
3.66238874431
3.47607043699
3.28231388115
3.08273851723
2.87901659637
2.6728265646
2.4657881686
2.25939661731
2.0549472526
1.8534725774
1.65568881555
1.46197479606
1.2723802288
1.0866794954
0.904459639248
0.725249051506
0.548661531635
0.374571591089
0.203255811957
0.0356261533635
-0.126789462355
-0.281243242963
-0.424921014266
-0.551550644843
-0.66055306215
-0.730464540837
-0.788596594874
-0.667396342891
-0.838881345902
-0.606666485489
-0.0874907557363
-0.211555716973
-0.211551398468
0.00475795612883
0.213627929778
0.387539956382
0.561228267872
0.741025363028
0.921327807464
1.09950465067
1.27477448373
1.44584642406
1.61098838659
1.76862695073
1.91753777096
2.05679150819
2.18568469944
2.30370638859
2.41051246284
2.50590009914
2.58977890123
2.66214843825
2.72307681473
2.77268624919
2.81113802108
2.83862355245
2.85535335765
2.86155188742
2.85744694237
2.84326938703
2.81923147404
2.78554241275
2.74220981945
2.68903593116
2.62572901322
2.56188834814
2.49901511964
2.43828192904
2.38065023663
2.32587263227
2.27346152974
2.22319729704
2.17492535228
2.12835152859
2.0830235045
2.03836903535
1.99372158937
1.94833357622
1.90139913679
1.85208274019
1.79955750817
1.74304337318
1.68185117557
1.61542317724
1.54337487141
1.46552651041
1.38192694301
1.29285737772
1.19881744819
1.10048458729
0.998653738425
0.894157023424
0.787778118669
0.680169899329
0.57179251411
0.462883974612
0.353465531745
0.243407291935
0.132494248381
0.0206511214188
-0.0920951793574
-0.204765620663
-0.316742295157
-0.422919366118
-0.525537808693
-0.597779504382
-0.680699951631
-0.53455922301
-0.811905668389
-0.829913752666
0.305349214777
-0.0441671147353
-0.0179823263804
0.267303765777
0.466314974358
0.599135014519
0.727551567746
0.860662621605
0.994463900737
1.12890544807
1.26484668403
1.40174140506
1.53819862505
1.67277594783
1.80423672188
1.93155443082
2.05389322157
2.17059810981
2.28118206212
2.38530262368
2.48273715263
2.57335797623
2.65711338469
2.73401043214
2.80410363623
2.86748453378
2.92427629117
2.97462773486
3.01871145589
3.05671985792
3.08886958974
3.11540937003
3.13667317308
3.15289270598
3.16233739494
3.1618036818
3.15051735571
3.12869857731
3.0969477068
3.05561019718
3.00490042211
2.94523013449
2.87723755162
2.80167413583
2.71933387211
2.63102905637
2.53756497797
2.43970787333
2.33815197768
2.23349648835
2.12622960997
2.0167242768
1.90524193628
1.79194927074
1.67694367077
1.56029040734
1.44206519864
1.32240166108
1.20153431438
1.07983308026
0.957818910676
0.836157132742
0.715623488221
0.597047536851
0.481238253229
0.368910329458
0.260611595642
0.156699628827
0.0572979613613
-0.0375646320863
-0.128156260303
-0.214167678289
-0.296594007179
-0.371855466456
-0.447191278185
-0.4936878517
-0.57359160321
-0.370302079674
-0.758165585993
-1.06290945656
0.892288244477
0.213126920846
0.267209682204
0.556001825517
0.691297547939
0.762724027377
0.840148215387
0.926749038279
1.01816962642
1.11487214425
1.21725545784
1.32412722734
1.43361766158
1.54388195273
1.65328150724
1.76038979047
1.86398431754
1.96304053485
2.0567167673
2.1443328999
2.2253460518
2.29932900385
2.36595052767
2.42496010941
2.47617437565
2.51946734918
2.55476129348
2.58202076647
2.60124506413
2.61246494482
2.61572651293
2.61109004361
2.5985840434
2.57860837787
2.55380455967
2.52568647263
2.49469979457
2.46132103013
2.4260264139
2.3889827092
2.35003380969
2.30889672582
2.26527666116
2.21887183714
2.16936983551
2.11646854428
2.05990454034
1.99947122226
1.93502844036
1.86650466263
1.79389492973
1.71725316698
1.6366818124
1.55231916433
1.46432840477
1.37288979593
1.2781997882
1.18047822286
1.07998513475
0.977045188874
0.872076309529
0.765615451141
0.658334080061
0.551035942125
0.444631534198
0.340097182634
0.238405886677
0.140487497729
0.0471333893152
-0.0409049047104
-0.12325345486
-0.198983496547
-0.269046143081
-0.329314747223
-0.389770374801
-0.41651288658
-0.49344369896
-0.215651181003
-0.71148144772
-1.299932266
1.64781680895
0.498434228509
0.573567695187
0.806216119766
0.853999400213
0.86868245124
0.90620504594
0.959498697737
1.02324028413
1.0971816134
1.18044390467
1.27097203387
1.36647470088
1.46485994145
1.56429585544
1.66319561733
1.76020481977
1.85418668811
1.94420186085
2.02948454391
2.10941940494
2.18352008968
2.25141118495
2.31281264309
2.36752757986
2.41543208747
2.45646756931
2.49063476368
2.51798845253
2.53863656716
2.55273221836
2.56049750205
2.56217130862
2.55805574815
2.54743337151
2.52990768841
2.50563514098
2.47498521883
2.43843771259
2.39647420831
2.3495325219
2.29804751621
2.24247760259
2.18327811284
2.12085891224
2.05555938967
1.98763938948
1.91727887417
1.84458311705
1.76959487177
1.69231227649
1.61271053666
1.53076438319
1.44646869832
1.35985523648
1.27100382762
1.18004791641
1.08717509514
0.992625524482
0.896690868467
0.79971783066
0.70211613333
0.604371737733
0.507058503274
0.410841471802
0.316475694201
0.224767603134
0.136562373494
0.0526451438552
-0.0261525338199
-0.0993825752459
-0.165947929485
-0.227004355243
-0.277840805099
-0.330827514866
-0.346103284371
-0.430420668236
-0.0780400118275
-0.682023719583
-1.53320463826
2.54899555148
0.766539469144
0.873294780942
1.01164742992
0.974812101132
0.947992429617
0.957954451315
0.988730466594
1.03457128605
1.09405055309
1.16495566457
1.24453118177
1.33019432674
1.41969588521
1.51108797177
1.60269028476
1.69306649926
1.78100036055
1.86546999014
1.94562346481
2.02075623437
2.09029164097
2.15376393511
2.21080440557
2.26112972457
2.30453272224
2.34087476934
2.37007984955
2.39212978264
2.40706143029
2.41496466693
2.41599199516
2.41038016115
2.39860214086
2.38145077818
2.35929564706
2.33245524183
2.30126322006
2.26601752803
2.22694611256
2.18420655657
2.1379214905
2.08821836339
2.03524397229
1.97916057034
1.92013760083
1.85834408491
1.79393885115
1.72705952862
1.65781302596
1.58627084458
1.51247092317
1.43642641551
1.3581409992
1.2776285085
1.19493511036
1.11015956411
1.02346941625
0.935109910104
0.845405866808
0.754758842455
0.66364065233
0.572590188893
0.48221243184
0.393173789393
0.306211963522
0.222096565886
0.141640132295
0.0655868589585
-0.0052500025444
-0.0705283440376
-0.129241086885
-0.18300163124
-0.226830633958
-0.275692524598
-0.284374962069
-0.383659424097
0.0409190139626
-0.666169113442
-1.74055669217
3.57244961849
0.982676560975
1.15568472261
1.17860970365
1.07403868034
1.02021103278
1.01095063337
1.0261697125
1.06017701946
1.11017646072
1.17283213071
1.24490115812
1.32361873861
1.40665660932
1.49203355702
1.57806100622
1.66330422711
1.74654782974
1.82676571902
1.90309553907
1.97481744635
2.04133621682
2.10216654962
2.15692093369
2.20529986252
2.2470839107
2.28212736492
2.31035324017
2.3317493947
2.34636682914
2.35431774475
2.35578336439
2.35098543074
2.34018125412
2.32346753625
2.30098257072
2.27302661914
2.23999451913
2.20231284794
2.1604032167
2.11466162777
2.06545347582
2.01311576079
1.95795644367
1.90024902911
1.84022887816
1.7780929789
1.71400158204
1.64807948375
1.58041687081
1.51107081681
1.44006817915
1.36741145284
1.29308785445
1.21708239028
1.13939525166
1.06006128349
0.979169610759
0.896880477078
0.813434816302
0.729160716983
0.644467987236
0.559847062349
0.475860759432
0.393133401367
0.312373490618
0.234319111769
0.159750043901
0.0893482083512
0.0239272469907
-0.0363090085262
-0.0905501690113
-0.140856782556
-0.182065771556
-0.231260217324
-0.23954130329
-0.357155302131
0.1369894189
-0.666210925937
-1.9066713022
4.6810897902
1.12113348943
1.42364634757
1.31955233186
1.16883184109
1.09727490078
1.07300956213
1.07654021013
1.10191679678
1.14484755138
1.20108572095
1.26702431544
1.33976027181
1.41692279995
1.49654085097
1.57696164985
1.65679189046
1.73485217582
1.81014200468
1.88181334631
1.9491501774
2.01155255092
2.06852389783
2.11966090396
2.16464539299
2.20323752209
2.2352705981
2.26064573974
2.27932971181
2.29134746287
2.29678936197
2.29578845298
2.28861541346
2.27569079547
2.25725858646
2.23354386715
2.20483982039
2.1714789175
2.13379894295
2.09213145222
2.046801469
1.99812933507
1.94643277073
1.89202409259
1.83520245887
1.77624366266
1.71539137733
1.65285063114
1.58878391662
1.52331008225
1.45650648126
1.38841428191
1.31904658178
1.24839925771
1.17646225769
1.10323560743
1.0287444797
0.953056231286
0.876294828392
0.798650590175
0.720390116032
0.641847484236
0.563431360322
0.485618800261
0.408933506528
0.333961522868
0.261352971618
0.191750466653
0.12558811885
0.0636515413586
0.00578167950399
-0.047752356658
-0.0993781921265
-0.144105900628
-0.198911286177
-0.218380083209
-0.348355703917
0.20965556698
-0.697127097606
-2.01995511432
5.83265465867
1.17103847182
1.68864943937
1.44446379427
1.26768077113
1.18187555769
1.14453802156
1.13875231648
1.15734458536
1.19451467013
1.24527027816
1.30571017424
1.37283115204
1.44426280747
1.51808986382
1.59273739457
1.66689076717
1.73943928069
1.8094372458
1.8760770904
1.93867042687
1.99663435283
2.04948117478
2.09681049012
2.13830276893
2.17371400064
2.20287131533
2.22566826618
2.24206313941
2.25207004451
2.25577098426
2.25328174394
2.24488244053
2.23088722513
2.21141186924
2.1866902434
2.15704059459
2.12282048285
2.08439948273
2.04214819318
1.99643190042
1.94760638477
1.89601523129
1.84198791019
1.78583578611
1.72784644452
1.66827697718
1.60734755773
1.5452359847
1.48207427139
1.41794915463
1.35290627581
1.28695875564
1.22009947292
1.15231151967
1.08358593752
1.0139346647
0.943406760595
0.872100469478
0.800165339502
0.727820761249
0.655340855421
0.58304695442
0.511315749772
0.440591176181
0.371241962696
0.303874497551
0.238873027112
0.176037713528
0.116015844279
0.058168450848
0.00157230776016
-0.0560818124245
-0.11145151839
-0.177729541887
-0.224576820815
-0.340610247646
0.25887569266
-0.781335800606
-2.07526896674
6.98446172951
1.13448353579
1.96371780844
1.55801032792
1.37313408205
1.27281751293
1.22404471515
1.21080740181
1.22383977607
1.25600605059
1.3017011522
1.35679728528
1.41824877471
1.48373912524
1.55145297938
1.61992706283
1.68795072465
1.75450124909
1.81870284072
1.87980066386
1.93714430067
1.9901767375
2.0384267632
2.08150305505
2.1190895119
2.15094083416
2.17687914694
2.19678945566
2.21061890384
2.21836655364
2.2200996944
2.21591052254
2.20609744428
2.19097342627
2.17065049416
2.14534924456
2.11536777208
2.08103329099
2.04268570259
2.00067575844
1.95536240258
1.90710655568
1.85626508674
1.8031850391
1.74819765784
1.69161136425
1.63370451838
1.57471842436
1.51485137629
1.45425405922
1.39302948508
1.33123615633
1.26889617073
1.20600963116
1.14255975502
1.07853586109
1.01394092888
0.948807592597
0.88321124511
0.817268708662
0.751139532992
0.685042802945
0.619209781728
0.553884141308
0.489588684789
0.426120947387
0.364067566887
0.303735223068
0.244041841788
0.184774207988
0.124398676518
0.0607296870937
-0.00843345807612
-0.0818226529986
-0.167484170144
-0.250711329361
-0.314898713806
0.245813853675
-0.904787440065
-2.07239638272
8.09912528924
1.02430937342
2.25908737064
1.65993543995
1.48473794982
1.36762185818
1.30960799369
1.29048187764
1.29882925836
1.32645116558
1.36723539334
1.41691629165
1.47248097416
1.53172447394
1.59297146015
1.65489648308
1.71640949966
1.77658682748
1.8346304738
1.88984498215
1.94162398761
1.98944254445
2.03285191181
2.0714757776
2.10500663986
2.13320252324
2.15588378029
2.17292966658
2.18427736198
2.18991450849
2.18989331305
2.18429412037
2.17339662505
2.15745082543
2.13655310243
2.11091421839
2.08082548051
2.04660665479
2.00858925395
1.9671169635
1.92254376822
1.87522867882
1.8255299059
1.77379972067
1.72037843469
1.66558736517
1.60972084717
1.55303843579
1.49575820114
1.43805002888
1.38003578938
1.32179123177
1.26335333066
1.20473970129
1.14594404121
1.0869653827
1.02780868527
0.968510466666
0.909120978368
0.849746149625
0.790474941754
0.731547735379
0.673081758329
0.614909100599
0.558009011526
0.501926796219
0.4464196396
0.391699681824
0.335814143481
0.27670250639
0.210999354627
0.13557583634
0.0488313365073
-0.0484829198612
-0.159891708248
-0.271314028568
-0.276106812636
0.13607103383
-1.03692149815
-2.01516560334
9.14716840362
0.859752337762
2.57950440774
1.7469690307
1.60148314381
1.46400314657
1.39965977131
1.3758541745
1.38017435617
1.40353127675
1.43940018355
1.48348832646
1.53289428954
1.58557682066
1.64003224877
1.69508958256
1.7497874693
1.80330479261
1.85492345702
1.90400909507
1.9500018516
1.99241171268
2.03081591541
2.06485642361
2.09423741512
2.11872229246
2.13813080807
2.1523363268
2.16126461374
2.16489060647
2.16325112733
2.15642662693
2.14466756714
2.12816828229
2.10702092307
2.08141850668
2.05162804466
2.01794634608
1.98068688658
1.94018017397
1.89677163654
1.85081578713
1.80267034725
1.75269088276
1.70122496905
1.64860532499
1.59514183121
1.54111329527
1.48676102868
1.43227863803
1.37781342362
1.32346611099
1.26929711308
1.21535422372
1.16165008568
1.10821536944
1.05506133712
1.00225386204
0.949813508056
0.897963291593
0.846585423519
0.795897142679
0.746412517482
0.697677504258
0.650341145642
0.604214735759
0.558184517624
0.511030486046
0.459482346877
0.399370490683
0.325613580344
0.234900951736
0.127442751341
0.00553935623474
-0.131579122431
-0.261654672582
-0.256170870921
-0.0848800239923
-1.13796257616
-1.90992982182
10.107954897
0.662470875523
2.92389645687
1.81520295854
1.72296731372
1.56007064615
1.49292012791
1.46520482214
1.46602988919
1.48528780596
1.51616563046
1.55446427994
1.59746255025
1.64332511861
1.69074146358
1.73870375346
1.78638118179
1.83305511183
1.87808672883
1.92090334373
1.96099292756
1.99790298343
2.03123938932
2.06066531808
2.08589870509
2.10670998477
2.1229184359
2.13439151449
2.14103937675
2.14282308248
2.1397411383
2.13190417058
2.11955728155
2.10278272685
2.08168220126
2.05643873312
2.0272913228
1.99450882216
1.95838253721
1.91922568702
1.87737032764
1.83316195648
1.78695389969
1.7391022319
1.68995981625
1.63986997501
1.58915860031
1.53812576826
1.48704181106
1.43613048764
1.38557536209
1.33551436103
1.28604137755
1.23725737139
1.1892048509
1.14196555592
1.09555929397
1.05020967752
1.00575865727
0.962615343791
0.921062679613
0.880983463257
0.842980730072
0.806962473362
0.77288771774
0.7401000075
0.706709949052
0.669505679161
0.623162872262
0.561503754729
0.478909825116
0.373374576986
0.247211836363
0.101705265376
-0.0674511800358
-0.235374672221
-0.304834425727
-0.383497211327
-1.16145138969
-1.76429071705
10.9690906556
0.453285379618
3.28634958267
1.86188054139
1.84948941513
1.65414304105
1.58832496297
1.5570022133
1.55482331031
1.57007692001
1.5958739538
1.62821709168
1.66461794609
1.70347753442
1.7436910871
1.78441625761
1.8249520726
1.86468087
1.9030429666
1.93952797489
1.97367378963
2.00506765187
2.03334657106
2.05819643787
2.07934990547
2.09658410198
2.10971707219
2.11860872354
2.12315141673
2.12329025884
2.11897861509
2.11036866375
2.09769607845
2.08093649746
2.06018767343
2.0356221744
2.00745113349
1.97591323826
1.94127447437
1.90382725332
1.86388665745
1.82178571867
1.7778705242
1.73249586032
1.68601915525
1.63879514332
1.59116830193
1.54346347237
1.49598878275
1.44900723156
1.40275127743
1.35741230993
1.31314264037
1.27010539157
1.22838950621
1.18822136158
1.1495431328
1.11279799046
1.07826027976
1.04604879812
1.01668059564
0.990324949949
0.967355538794
0.947863231626
0.931453525569
0.916506305002
0.899457641337
0.874641326481
0.834594489506
0.771911257778
0.681207710894
0.560680575177
0.40983844182
0.222530911101
-0.00850079217586
-0.250453941709
-0.435021965178
-0.658741078477
-1.09266043004
-1.58618935852
11.7251136707
0.250111885989
3.6578166983
1.8863679637
1.98158459002
1.74457868178
1.68498933065
1.64986453154
1.64519532978
1.65648900685
1.67713833204
1.70341590429
1.73310219585
1.76485501037
1.79778002679
1.83120026147
1.86454331559
1.897293047
1.9289701312
1.95912926907
1.98736089758
2.01329475851
2.03660009597
2.05698560695
2.07419693301
2.08801534491
2.09825482608
2.10476480675
2.10742073881
2.10615012326
2.10087834928
2.09178149139
2.07904212969
2.06258512434
2.04248107546
2.01888557003
1.99198620175
1.96199463596
1.92915181906
1.89372812887
1.8560197
1.81634477987
1.77503977178
1.73245677789
1.6889575226
1.6449100633
1.60068214292
1.55662925476
1.513109502
1.4704364803
1.42891273608
1.38879004272
1.35032222024
1.31376883751
1.27928893604
1.24722108523
1.21799087176
1.19186038263
1.1692550173
1.1505967234
1.13640172792
1.12725270751
1.12372855308
1.12581709315
1.13219500612
1.13936769334
1.14102506779
1.12849193133
1.09183749945
1.02175027983
0.910760608385
0.753307133923
0.544030709397
0.278514391793
-0.0294707759207
-0.323837503994
-0.554942031118
-0.768931383871
-0.951899944823
-1.38321861539
12.3759128727
0.0669546516933
4.02788120767
1.89032519241
2.11943275659
1.82979137833
1.78221246756
1.74253529375
1.73596776317
1.74330367158
1.75878463517
1.77895019501
1.80187723009
1.82649103183
1.85210827725
1.87821646907
1.90437343073
1.93016750734
1.95520420853
1.97910738385
2.00152386444
2.02212747724
2.04061917182
2.05672717852
2.07020521261
2.08083246968
2.08841338257
2.09278252725
2.09379941909
2.09137402615
2.08542140097
2.07610945316
2.06355633834
2.04766222623
2.02847073815
2.00611632472
1.98076296723
1.95259558446
1.92182893948
1.88871018367
1.8535155293
1.81654800849
1.77813363345
1.7386223426
1.6983812103
1.65779606504
1.61726563805
1.577183354
1.53797808114
1.50002601227
1.46373115699
1.42938439504
1.39753631413
1.36834976812
1.34253509417
1.32040191351
1.30228390519
1.28883572071
1.2805295582
1.27823073624
1.28293740244
1.29563565965
1.31681319065
1.3454812131
1.37803094672
1.40742689966
1.42289938714
1.41102268544
1.35724128494
1.24785131764
1.07197422891
0.824345026498
0.509617003476
0.150531023025
-0.200966418598
-0.477816029778
-0.661921838614
-0.792325255803
-0.866720006219
-1.16232356025
12.9251937553
-0.0863133605775
4.38624687343
1.87732359917
2.26242827937
1.90841196435
1.87945119148
1.83385376651
1.82611524443
1.82945106616
1.83980222004
1.85387043284
1.87005871132
1.88756281815
1.90590831902
1.92474912917
1.9437778447
1.96269440912
1.9811954015
1.99897972147
2.01575368957
2.03123535861
2.04515307352
2.05724770751
2.06727163859
2.07499218723
2.08019557776
2.08269452869
2.08233142686
2.07900164821
2.07263267357
2.06335396647
2.05122023824
2.0361218719
2.01808115539
1.99720917282
1.97364571776
1.94754943435
1.91910837308
1.8885448972
1.8561137236
1.82210227688
1.78682589579
1.75063474271
1.71390452273
1.67704454849
1.64049765785
1.60471353714
1.57020900584
1.53743683146
1.50702591115
1.4791500607
1.45504762997
1.43495202067
1.41918475425
1.40858505412
1.40346100031
1.40481576043
1.41367052924
1.43147490484
1.45965934195
1.49908570784
1.54897914012
1.60547325279
1.66021227423
1.69979878479
1.70620141645
1.65887106962
1.5377907994
1.32800141053
1.02556927396
0.64454124073
0.221801854711
-0.184125204532
-0.506619375364
-0.706479751592
-0.807652705303
-0.855703627307
-0.88209708891
-0.929584411598
13.3791587132
-0.203635372626
4.72378199492
1.85218902953
2.40901407162
1.97949375347
1.97624438291
1.92274193826
1.91474943048
1.91398520926
1.91931234067
1.92734998642
1.93687684641
1.94735209307
1.95850963803
1.97017428221
1.98218253269
1.99435524659
2.00648827187
2.01836110178
2.02974168685
2.04038864364
2.05004937952
2.05846579172
2.06537565659
2.07052159251
2.07366170321
2.07457661583
2.07308923495
2.06906150903
2.06247266468
2.05345032115
2.04194047626
2.0278466595
2.01117808895
1.99201496237
1.97046636008
1.94666356864
1.92076864066
1.8929799218
1.86352970347
1.83269086602
1.80076835399
1.76811598197
1.73512436215
1.70223889194
1.6699549923
1.63881282929
1.60946751047
1.58243709048
1.55872976116
1.53885145519
1.52373892053
1.51397958965
1.50984870541
1.5123774718
1.52235512474
1.54131929793
1.57092718888
1.61302545718
1.66876598569
1.73741711031
1.81461350098
1.89055992008
1.94890310948
1.96723851741
1.91954414346
1.78115508001
1.53556644008
1.18270879305
0.746299567643
0.275994284234
-0.161265832429
-0.502317461905
-0.71505002545
-0.814277877614
-0.839320243577
-0.801666038407
-0.695051912179
-0.690222550623
13.7454547013
-0.282198940242
5.03312567033
1.82028460048
2.55676108747
2.04266238006
2.07210235267
2.00821684384
2.00110386119
1.99606414778
1.9965454788
1.99866053157
2.00165194789
2.00522369351
2.0093201033
2.01394546064
2.01909191456
2.02471265026
2.03071031824
2.03695019467
2.0432606769
2.04943300849
2.05522006469
2.06034926721
2.06452708714
2.06745858083
2.06886442736
2.06848745306
2.06613103596
2.06160480301
2.05497833174
2.04639925731
2.03567876899
2.02274740143
2.00762041305
1.99035018429
1.97100970038
1.94969668074
1.92654306526
1.90172169399
1.87544131433
1.84796115236
1.81957732344
1.79065733717
1.76161099885
1.73294348277
1.70520176617
1.67915158452
1.65553507559
1.63533570454
1.61951513364
1.60876085612
1.60399160668
1.60581341608
1.6149125023
1.63263070387
1.66036408734
1.7002148584
1.75418035897
1.82365826401
1.90786308986
2.0019059944
2.09464946169
2.16732602238
2.1939739385
2.14471089838
1.99199168734
1.71949291511
1.33139614405
0.858945890854
0.359439157241
-0.096099768249
-0.445823533266
-0.661777314674
-0.761060375121
-0.78624715364
-0.756544263555
-0.6498597436
-0.479678272301
-0.448614557708
14.0323795181
-0.321747113734
5.30891406896
1.78689092542
2.70261541055
2.09816537641
2.16640329115
2.08942794373
2.08451573946
2.07493685148
2.07082742444
2.06715638985
2.06378174431
2.06061461541
2.05781856812
2.055587706
2.05408423352
2.0534040254
2.05356319765
2.05451575252
2.05614543119
2.05826227669
2.06060660956
2.06287225162
2.06471614847
2.06579529965
2.06578688676
2.06440228003
2.06142440627
2.05665415162
2.0502069993
2.04220050461
2.03240497345
2.02075573435
2.00728435565
1.9920323601
1.97504234501
1.95637534118
1.93612613553
1.9144358473
1.8914838152
1.8675205495
1.84283328827
1.81781401303
1.79290306293
1.76875890207
1.74588781077
1.72562187814
1.70880051872
1.69632213828
1.68948722176
1.68902367439
1.69590564152
1.71091465791
1.73520263648
1.77054009881
1.81889285627
1.88258167732
1.96302283956
2.0594362796
2.16653957099
2.2722817471
2.35627067751
2.39029628816
2.3420547685
2.18248850986
1.89565255212
1.48856536521
0.996670802136
0.480600858329
0.011803506785
-0.34979776762
-0.576834336905
-0.682767173103
-0.710026477403
-0.697216975783
-0.642476033615
-0.515850626904
-0.355748673051
-0.208396647767
14.2483179644
-0.32390737494
5.54774412199
1.75674798587
2.84322347119
2.14681422542
2.25832752722
2.16570319549
2.16439860919
2.14993778773
2.14156856589
2.13226561281
2.12273425967
2.11302968553
2.10355162821
2.09469559848
2.08680805049
2.08013592577
2.07481284638
2.070882292
2.06827224118
2.06679239548
2.0661487762
2.06598039323
2.06587689598
2.06544146608
2.06430853737
2.06216928575
2.05879568342
2.05400514408
2.04792207346
2.04062453253
2.03188210858
2.02163577904
2.00993257975
1.99680991139
1.98228862281
1.96639425925
1.94918009324
1.93075508073
1.91126168387
1.89093851989
1.87007469084
1.84913740397
1.82855348625
1.80930391336
1.79214663835
1.77831069306
1.76906557487
1.76541675668
1.76873054841
1.77989303914
1.79997053763
1.83002160762
1.87165881829
1.92704282375
1.99833963009
2.08715713058
2.19264361304
2.30943138177
2.42507144351
2.5184462782
2.56026164768
2.51699603982
2.35864933749
2.06910965278
1.65599629045
1.15559574142
0.628579686457
0.145232327238
-0.235959710325
-0.486986220319
-0.61637687574
-0.659430528631
-0.657536398671
-0.63319384199
-0.57307977909
-0.451626831739
-0.313695981804
0.0274061829221
14.4013502739
-0.291580531774
5.74796146709
1.73378851419
2.97525989036
2.18984846777
2.34684902396
2.23658499495
2.24021234023
2.22048818108
2.2082556527
2.19348422399
2.17804456652
2.16203876227
2.14613212178
2.13093052471
2.11697786702
2.10467591365
2.09427781425
2.08591347811
2.07953743914
2.0749355683
2.07175629014
2.06956189183
2.06786022876
2.06620241031
2.06418578977
2.06149886049
2.05791543535
2.05328941433
2.04772173995
2.04126459516
2.03370748831
2.02500084715
2.01520169728
2.0043354827
1.99240301711
1.97940061916
1.96533605631
1.95027756905
1.93433700424
1.91776640202
1.90084938646
1.8841668907
1.868417699
1.85452667164
1.84360891701
1.83707712443
1.83635864367
1.84273559205
1.85758105002
1.88188728604
1.91683799647
1.96382090191
2.02481230646
2.10201445471
2.19689471923
2.3087786596
2.43236587805
2.55539121791
2.65679589273
2.70718992576
2.67268311524
2.52261950451
2.23993394464
1.83096016009
1.33021517276
0.796255665236
0.297588602566
-0.107378805242
-0.387946046408
-0.547253617169
-0.6138925505
-0.625065313183
-0.610528831896
-0.580360554535
-0.519550512187
-0.409294410297
-0.290344379667
0.25625594269
14.499045299
-0.228401468965
5.90936035128
1.72102816027
3.09569856134
2.22874909356
2.43077621913
2.30183912216
2.31143554738
2.28610270017
2.27044320063
2.2503748302
2.22931305556
2.20727631388
2.18523791519
2.16401838832
2.14436855629
2.1268439695
2.11181689805
2.0994959098
2.08983740065
2.08257892484
2.07728835496
2.07343078146
2.07042453482
2.0677800682
2.06506935218
2.06200042018
2.05832282212
2.05398157592
2.04910489999
2.04365768178
2.03745682664