/*--------------------------------*- C++ -*----------------------------------*\
| =========                 |                                                 |
| \\      /  F ield         | OpenFOAM: The Open Source CFD Toolbox           |
|  \\    /   O peration     | Version:  v1806                                 |
|   \\  /    A nd           | Web:      www.OpenFOAM.com                      |
|    \\/     M anipulation  |                                                 |
\*---------------------------------------------------------------------------*/
FoamFile
{
    version     2.0;
    format      ascii;
    class       surfaceScalarField;
    location    "300";
    object      phi;
}
// * * * * * * * * * * * * * * * * * * * * * * * * * * * * * * * * * * * * * //

dimensions      [0 3 -1 0 0 0 0];
oriented        oriented;


internalField   nonuniform List<scalar> 
12640
(
1.33783269457e-05
-1.33783130279e-05
2.27715216632e-05
-9.39315237047e-06
1.99996370239e-05
2.77193423097e-06
6.55431496314e-06
1.34453691806e-05
-1.91573663618e-05
2.57116971587e-05
-4.93060013714e-05
3.01486332761e-05
-8.00455216433e-05
3.07395018155e-05
-0.000110699231971
3.06536843424e-05
-0.000140720671905
3.00214038049e-05
-0.000169665431267
2.89447173971e-05
-0.000197211653658
2.75461721856e-05
-0.000223145064866
2.59333556841e-05
-0.000247340870719
2.4195743213e-05
-0.00026974589131
2.24049533732e-05
-0.000290362292369
2.06163280436e-05
-0.000309233352637
1.88709836439e-05
-0.000326431463999
1.71980303039e-05
-0.000342048293554
1.56167458131e-05
-0.000356186974322
1.4138593776e-05
-0.000368956055768
1.27689924757e-05
-0.000380464966646
1.15088195626e-05
-0.000390820693849
1.03556343676e-05
-0.000400125444473
9.30465610043e-06
-0.00040847505395
8.34951373596e-06
-0.000415957971006
7.48282012957e-06
-0.000422654657598
6.6965887019e-06
-0.000428637296066
5.98253981693e-06
-0.000433969703407
5.3323080435e-06
-0.000438707388903
4.73758585137e-06
-0.000442897707711
4.19021900248e-06
-0.000446580068793
3.68226143029e-06
-0.000449786174965
3.20600700818e-06
-0.000452540242899
2.75396947131e-06
-0.000454859186848
2.31884669429e-06
-0.000456752571569
1.89328848239e-06
-0.000458222233755
1.46956804891e-06
-0.000459262510881
1.0401845589e-06
-0.000459860436226
5.97835945e-07
-0.000459997010958
1.36487408713e-07
-0.000459647090815
-3.50003236232e-07
-0.000458781824605
-8.65346867823e-07
-0.00045737264168
-1.40925851363e-06
-0.000455389807394
-1.98290732671e-06
-0.000452800984342
-2.58889043365e-06
-0.000449571054427
-3.22999495807e-06
-0.000445662280419
-3.90883323534e-06
-0.000441034596274
-4.62774173087e-06
-0.000435645978593
-5.38866985473e-06
-0.000429452931879
-6.19309848845e-06
-0.000422411138217
-7.0418409442e-06
-0.00041447634106
-7.93484578795e-06
-0.000405605517707
-8.87086873669e-06
-0.000395758393342
-9.84717323604e-06
-0.000384899312859
-1.08591274598e-05
-0.000372999476936
-1.18998887046e-05
-0.000360039501728
-1.29600274905e-05
-0.000346012263689
-1.40272983361e-05
-0.000330925955262
-1.50863698016e-05
-0.000314807302849
-1.61187237294e-05
-0.000297704851109
-1.71025261461e-05
-0.000279692231917
-1.80127054666e-05
-0.000260871290886
-1.88210327138e-05
-0.00024137490131
-1.94964960703e-05
-0.000221369106664
-2.00059083535e-05
-0.000201054040579
-2.03151984488e-05
-0.000180662836622
-2.03913453107e-05
-0.000160457442496
-2.02055569945e-05
-0.000140720316718
-1.97372982828e-05
-0.000121740293885
-1.89802175435e-05
-0.00010379342277
-1.79470725863e-05
-8.71195462479e-05
-1.6674093221e-05
-7.18932177437e-05
-1.52265384355e-05
-5.82057802681e-05
-1.36876415513e-05
-4.60367657382e-05
-1.21691872581e-05
-3.52868896237e-05
-1.07500350414e-05
-2.57593100387e-05
-9.52771254136e-06
-1.71964876044e-05
-8.56307725116e-06
-9.438009195e-06
-7.75881052108e-06
-2.89326484994e-06
-6.54472498574e-06
-2.8938000252e-06
8.18858734039e-06
-2.15667998723e-05
-2.88880042854e-06
1.68432748276e-06
-2.80986710118e-05
2.79818411576e-05
-5.61906562262e-05
4.15373658698e-05
-8.31945990319e-05
5.27156409594e-05
-0.000112028788593
5.89828191419e-05
-0.000142389518395
6.11002161006e-05
-0.000172893969603
6.11581137322e-05
-0.000202705279467
5.98326806995e-05
-0.000231299398314
5.7538798033e-05
-0.000258333937423
5.45806631076e-05
-0.000283597408715
5.11967745611e-05
-0.000306977636039
4.75759091272e-05
-0.000328437944516
4.38651972642e-05
-0.00034799789649
4.01762075072e-05
-0.000365717454775
3.65904673189e-05
-0.000381684167209
3.31646613357e-05
-0.000396002965709
2.99354617451e-05
-0.000408788294439
2.6923834234e-05
-0.00042015815028
2.41387595362e-05
-0.000430229739486
2.15803152668e-05
-0.000439116370486
1.92421716994e-05
-0.000446925348507
1.71135366463e-05
-0.000453756588058
1.51806557283e-05
-0.000459701788286
1.34279199304e-05
-0.000464843986116
1.18386859085e-05
-0.000469257401513
1.03958527607e-05
-0.000473007456072
9.08225970563e-06
-0.000476150926387
7.88095265949e-06
-0.000478736172532
6.77536090273e-06
-0.000480803444907
5.74943038822e-06
-0.000482385161222
4.78761888201e-06
-0.00048350620743
3.87491365708e-06
-0.000484184270392
2.99680611644e-06
-0.00048443000116
2.13891984309e-06
-0.000484246627492
1.28609286552e-06
-0.000483629234666
4.22696393666e-07
-0.000482571012954
-4.60483337211e-07
-0.000481069114559
-1.36550005859e-06
-0.00047912033177
-2.29887790449e-06
-0.000476713770833
-3.27198908901e-06
-0.000473828299698
-4.29481458051e-06
-0.000470435871642
-5.37540769376e-06
-0.000466504448686
-6.52039051828e-06
-0.000461998972741
-7.73553363077e-06
-0.000456881926983
-9.02594824462e-06
-0.000451113632762
-1.03960894813e-05
-0.000444652648511
-1.18497165144e-05
-0.00043745612428
-1.33896685929e-05
-0.000429480444628
-1.50175783117e-05
-0.000420681960477
-1.67333706863e-05
-0.000411018165586
-1.85347196151e-05
-0.000400449053648
-2.04163239556e-05
-0.000388939009456
-2.23692291937e-05
-0.000376458880938
-2.43800574499e-05
-0.000362988562315
-2.64304082771e-05
-0.000348519657465
-2.8496248175e-05
-0.00033305854731
-3.05475493113e-05
-0.00031662935805
-3.25479657847e-05
-0.00029927717701
-3.44547859952e-05
-0.000281071034669
-3.6218911282e-05
-0.000262107018727
-3.77851393547e-05
-0.000242510943671
-3.90926476416e-05
-0.000222440605268
-4.00763516555e-05
-0.000202086896163
-4.06689991771e-05
-0.000181673430206
-4.08049312225e-05
-0.000161452919018
-4.04261764256e-05
-0.000141700819901
-3.94895325449e-05
-0.000122702307903
-3.79788544544e-05
-0.000104735033626
-3.59144944532e-05
-8.80476442251e-05
-3.33616168968e-05
-7.28240047274e-05
-3.04503184256e-05
-5.91801366699e-05
-2.73316199499e-05
-4.71042002909e-05
-2.42452177983e-05
-3.65157242557e-05
-2.13385734015e-05
-2.72358588475e-05
-1.88076417685e-05
-1.89984004673e-05
-1.68005606314e-05
-1.1605032331e-05
-1.51522809579e-05
-5.03943272083e-06
-1.31108882675e-05
-7.93227873298e-06
-1.53553359657e-05
-6.21141629886e-06
-4.2352545686e-05
2.86815600429e-05
-6.59822346345e-05
5.16115271383e-05
-9.30424286189e-05
6.85975499339e-05
-0.000120509782246
8.01829817454e-05
-0.000148268116282
8.67411349517e-05
-0.000176342978723
8.91750547414e-05
-0.000204020178183
8.88352818438e-05
-0.000230708304827
8.65207696413e-05
-0.000256002221159
8.283266933e-05
-0.000279649484495
7.8227875632e-05
-0.00030151467758
7.30619101586e-05
-0.000321549665406
6.76108344473e-05
-0.000339769655545
6.20851189283e-05
-0.000356234014212
5.66404934883e-05
-0.00037103114163
5.13875168286e-05
-0.000384266841986
4.64002803672e-05
-0.000396055653033
4.17241869992e-05
-0.000406514591412
3.73826841104e-05
-0.000415758805678
3.33828815389e-05
-0.000423898674951
2.97200901282e-05
-0.000431037974177
2.63813733961e-05
-0.000437272795646
2.33482588732e-05
-0.00044269099271
2.05987510519e-05
-0.000447371978027
1.8108802143e-05
-0.000451386752779
1.58533556974e-05
-0.000454798063514
1.38070574427e-05
-0.000457660642599
1.19447315731e-05
-0.000460021501442
1.02417034414e-05
-0.000461920245181
8.67399621291e-06
-0.000463389331838
7.21840807013e-06
-0.000464454400593
5.85257919465e-06
-0.000465134629265
4.55503354398e-06
-0.000465442891263
3.3049606618e-06
-0.000465385880943
2.08180160727e-06
-0.000464965121683
8.6522832849e-07
-0.000464178416455
-3.64113803164e-07
-0.000463025011029
-1.61398952611e-06
-0.000461495049276
-2.89556172391e-06
-0.000459565994596
-4.22802708316e-06
-0.000457213635173
-5.62444200016e-06
-0.000454411396769
-7.09713987212e-06
-0.00045113001309
-8.65687717643e-06
-0.000447337468898
-1.03130128865e-05
-0.0004429992855
-1.20737943992e-05
-0.000438078777225
-1.39465256841e-05
-0.000432537288805
-1.59376471073e-05
-0.000426334418886
-1.80526473975e-05
-0.00041942833979
-2.02958101492e-05
-0.000411776252746
-2.26697199256e-05
-0.000403335108308
-2.51745731373e-05
-0.00039406261661
-2.78072618952e-05
-0.000383918655031
-3.05603417242e-05
-0.000372867038618
-3.34208947778e-05
-0.000360877703608
-3.63694490927e-05
-0.000347929199159
-3.93789627661e-05
-0.000334011469493
-4.24140363373e-05
-0.00031912874466
-4.54303265798e-05
-0.000303302526819
-4.83742446608e-05
-0.000286574533772
-5.1182834527e-05
-0.000269009683154
-5.37838255735e-05
-0.000250698849293
-5.60960311712e-05
-0.000231761548375
-5.80300143388e-05
-0.000212348135643
-5.94898229084e-05
-0.000192641346936
-6.03758533709e-05
-0.000172856837132
-6.05894987281e-05
-0.000153240374865
-6.00427023987e-05
-0.000134064322665
-5.86656418553e-05
-0.000115615899307
-5.64273407284e-05
-9.81795432396e-05
-5.33509068693e-05
-8.20251853796e-05
-4.95160322632e-05
-6.73467282724e-05
-4.51288112785e-05
-5.43080353904e-05
-4.03703393185e-05
-4.29127269525e-05
-3.56405059918e-05
-3.31083182284e-05
-3.11429095875e-05
-2.47659027741e-05
-2.7149933125e-05
-1.75863309721e-05
-2.39801332548e-05
-1.12525823929e-05
-2.14859509188e-05
-5.39912042344e-06
-1.896305118e-05
-1.33316148998e-05
-3.06515113551e-05
2.44400813055e-05
-5.87886037505e-05
5.68186274441e-05
-8.6368810311e-05
7.91917037391e-05
-0.000113710884816
9.59395930947e-05
-0.000140570010795
0.00010704207503
-0.000166827133121
0.000112998222207
-0.000192408459708
0.000114756342022
-0.000216997083421
0.000113423861607
-0.000240303997391
0.000109827634337
-0.000262122298591
0.000104650916323
-0.000282334533538
9.84400511335e-05
-0.000300899194541
9.16265070979e-05
-0.000317831943647
8.45435145619e-05
-0.000333187976801
7.74410789046e-05
-0.00034704754064
7.04999795922e-05
-0.0003595049494
6.38448441334e-05
-0.000370660763117
5.75560084943e-05
-0.000380616517384
5.16798524406e-05
-0.0003894713624
4.62374366353e-05
-0.000397320030322
4.12314542005e-05
-0.00040425168107
3.665164244e-05
-0.000410349291935
3.24788834824e-05
-0.00041568937956
2.86882430487e-05
-0.000420341900893
2.52511670147e-05
-0.000424370258269
2.21370520189e-05
-0.000427831364715
1.93143531185e-05
-0.000430775738686
1.67513208338e-05
-0.000433247610483
1.44164916394e-05
-0.000435285032614
1.22790129011e-05
-0.000436920057279
1.03089074267e-05
-0.000438178839676
8.47707674473e-06
-0.000439081759174
6.75538452212e-06
-0.000439643647567
5.11680804849e-06
-0.000439873828274
3.53502699357e-06
-0.000439776096467
1.98395645718e-06
-0.000439350966085
4.39984281988e-07
-0.000438599361554
-1.11582945383e-06
-0.000437512343735
-2.70111733016e-06
-0.000436071615543
-4.33639640971e-06
-0.000434257949407
-6.04179830394e-06
-0.000432047913526
-7.8345785099e-06
-0.000429415065259
-9.7300869259e-06
-0.000426330291249
-1.1741744464e-05
-0.000422762120338
-1.38812749201e-05
-0.000418676996792
-1.61590028088e-05
-0.000414039480019
-1.85841253119e-05
-0.000408812349003
-2.11648545153e-05
-0.000402956698398
-2.39083731587e-05
-0.000396432072183
-2.68205052756e-05
-0.000389196776561
-2.9905084551e-05
-0.000381208433891
-3.3162978892e-05
-0.000372424919696
-3.65908408877e-05
-0.000362805698932
-4.01796215805e-05
-0.000352313650091
-4.39130057391e-05
-0.000340917294238
-4.77658615115e-05
-0.000328593415781
-5.1702901062e-05
-0.000315329881803
-5.56776247298e-05
-0.000301128613624
-5.96316514898e-05
-0.000286008537763
-6.34943714871e-05
-0.000270008436339
-6.71829876669e-05
-0.000253189665967
-7.06026405419e-05
-0.000235638590382
-7.36471501976e-05
-0.000217469163654
-7.61994744967e-05
-0.000198825054277
-7.8133962533e-05
-0.000179881438624
-7.93194875277e-05
-0.000160847546968
-7.96234038139e-05
-0.000141963026067
-7.89272257094e-05
-0.000123499176254
-7.71294905747e-05
-0.000105747179471
-7.41793272308e-05
-8.89924839193e-05
-7.01055882522e-05
-7.35341940057e-05
-6.49742891738e-05
-5.95598662575e-05
-5.91030951629e-05
-4.72964844785e-05
-5.26336307945e-05
-3.67560864438e-05
-4.61807599935e-05
-2.78915036911e-05
-4.00072883955e-05
-2.06326321461e-05
-3.440858967e-05
-1.46608884263e-05
-2.99514312992e-05
-9.58281857672e-06
-2.65633542157e-05
-4.80648509157e-06
-2.37395537533e-05
-1.81360666842e-05
-3.51024837683e-05
5.95425551138e-05
-6.61808172535e-05
8.78969096298e-05
-9.53639369923e-05
0.000108374765132
-0.000122917184807
0.000123492783213
-0.00014892723325
0.000133052066665
-0.000173536215252
0.000137607147355
-0.000196805140511
0.000138025208877
-0.000218665654904
0.000135284315219
-0.000239050582457
0.000130212498034
-0.000257922055102
0.000123522321762
-0.000275280818944
0.00011579874421
-0.000291161778675
0.000107507392426
-0.00030562457626
9.90062341444e-05
-0.000318744064935
9.05604859349e-05
-0.000330602737102
8.2358566656e-05
-0.000341285543715
7.45275621171e-05
-0.000350876752914
6.71471258242e-05
-0.000359458242077
6.02612464043e-05
-0.000367108647749
5.38877441379e-05
-0.000373902949696
4.80256549154e-05
-0.000379912226155
4.26608149861e-05
-0.000385203451561
3.77700022493e-05
-0.000389839281727
3.33239642597e-05
-0.000393877844728
2.92896187451e-05
-0.000397372537907
2.56316320346e-05
-0.000400371836585
2.23135368141e-05
-0.000402919156097
1.92985239145e-05
-0.000405052772432
1.65499902436e-05
-0.000406805777616
1.40318993192e-05
-0.000408205931665
1.17089419167e-05
-0.000409275760177
9.54678504719e-06
-0.000410032716996
7.51222079958e-06
-0.000410489124101
5.57309396193e-06
-0.000410652216329
3.69799762257e-06
-0.000410524245549
1.85586306635e-06
-0.000410102161369
1.77784464866e-08
-0.000409385400457
-1.83271138786e-06
-0.000408366458778
-3.72017812777e-06
-0.000407025240945
-5.6777322976e-06
-0.000405340234595
-7.72692010966e-06
-0.000403286916755
-9.88801017419e-06
-0.000400838187689
-1.21789261198e-05
-0.000397964779104
-1.46152607753e-05
-0.000394635615222
-1.72105417795e-05
-0.000390818072417
-1.99766456805e-05
-0.000386478078368
-2.29242141356e-05
-0.00038158007656
-2.60629483046e-05
-0.000376086901735
-2.94016346386e-05
-0.000369959691005
-3.29478006368e-05
-0.00036315794227
-3.67069127202e-05
-0.000355639886772
-4.06811129615e-05
-0.000347363280119
-4.48675209228e-05
-0.000338286736921
-4.92562381811e-05
-0.000328371607837
-5.38282029713e-05
-0.000317584397119
-5.85531400598e-05
-0.000305899579624
-6.33877809994e-05
-0.000293302715631
-6.82745489113e-05
-0.000279793589353
-7.31408316036e-05
-0.000265389291363
-7.78987185505e-05
-0.00025012679997
-8.24455192796e-05
-0.000234065695914
-8.66637771e-05
-0.000217289779654
-9.04230864106e-05
-0.000199909837649
-9.35794259992e-05
-0.000182065628038
-9.59781667097e-05
-0.000163927594852
-9.74575026986e-05
-0.000145703004983
-9.78479608665e-05
-0.000127628227016
-9.70019608682e-05
-0.000109974476612
-9.47831862126e-05
-9.30416350528e-05
-9.11121041412e-05
-7.71058180105e-05
-8.60413216913e-05
-6.25168215731e-05
-7.95631855674e-05
-4.94398204781e-05
-7.21799592703e-05
-3.81576816797e-05
-6.39155954928e-05
-2.8703911662e-05
-5.56342856941e-05
-2.09977531266e-05
-4.77130904109e-05
-1.50072295542e-05
-4.0398620476e-05
-1.04251492827e-05
-3.45332471682e-05
-6.84890121653e-06
-3.01390688878e-05
-3.59052710307e-06
-2.69947055075e-05
-2.17264955971e-05
-3.54275929599e-05
9.49699325389e-05
-6.77840042808e-05
0.000120253204844
-9.73733941145e-05
0.000137964062627
-0.000124538097395
0.000150657402729
-0.000149496878141
0.000158010768629
-0.000172505283897
0.000160615476395
-0.000193749506294
0.000159269355508
-0.000213331302004
0.00015486603444
-0.000231332742994
0.000148213861375
-0.00024783258394
0.000140022082918
-0.000262912844103
0.00013087892239
-0.000276658138253
0.000121252601832
-0.000289152921746
0.000111500930249
-0.000300479091885
0.000101886565713
-0.000310714783694
9.25941652737e-05
-0.000319934252868
8.37469350778e-05
-0.000328208362207
7.54211360412e-05
-0.00033560519703
6.76579791266e-05
-0.000342190502042
6.04729441536e-05
-0.000348027822481
5.38628674864e-05
-0.000353178365075
4.78112469573e-05
-0.000357700663901
4.22921877932e-05
-0.000361650151412
3.72733359871e-05
-0.000365078714684
3.2718063971e-05
-0.000368034293693
2.85870909265e-05
-0.000370560549956
2.48396711771e-05
-0.000372696620328
2.14344708342e-05
-0.000374476946224
1.83301914246e-05
-0.000375931145672
1.54859730045e-05
-0.000377083987608
1.28616572925e-05
-0.000377955331639
1.04180018479e-05
-0.000378560082284
8.11684349503e-06
-0.000378908205612
5.92108836983e-06
-0.00037900498237
3.79464434387e-06
-0.000378852365763
1.70311543533e-06
-0.00037845052086
-3.84198615602e-07
-0.000377788616425
-2.494747173e-06
-0.000376849378564
-4.65954693108e-06
-0.000375616068553
-6.91117248402e-06
-0.000374066469034
-9.27664909969e-06
-0.000372174968236
-1.1779638725e-05
-0.000369913543912
-1.44404764604e-05
-0.000367252498948
-1.72764285908e-05
-0.000364160995799
-2.03021648539e-05
-0.000360607349985
-2.35304071466e-05
-0.000356559052169
-2.69726240036e-05
-0.000351982530876
-3.06395769003e-05
-0.000346842746407
-3.45415229465e-05
-0.000341102752447
-3.86878935224e-05
-0.00033472342204
-4.30863393101e-05
-0.000327663526227
-4.77410998471e-05
-0.000319880361496
-5.26507745376e-05
-0.000311331037839
-5.78056454531e-05
-0.000301974500264
-6.31848212221e-05
-0.000291774238858
-6.8753476586e-05
-0.000280701545317
-7.4460544173e-05
-0.000268739102017
-8.02370549704e-05
-0.000255884415288
-8.59955721374e-05
-0.000242153353081
-9.16298242217e-05
-0.00022758212936
-9.70167740024e-05
-0.00021223062177
-0.000102015301218
-0.000196182239405
-0.000106471469567
-0.000179548122661
-0.000110213525862
-0.000162468385545
-0.000113057870795
-0.000145112800939
-0.000114813036932
-0.00012769069872
-0.000115269998488
-0.000110437971953
-0.000114254607618
-9.36246861803e-05
-0.000111596377043
-7.75777288038e-05
-0.00010715894851
-6.25548367102e-05
-0.000101064077437
-4.89739080627e-05
-9.31439358483e-05
-3.69767399073e-05
-8.41769007316e-05
-2.6867131509e-05
-7.40248949517e-05
-1.87255955527e-05
-6.37754013291e-05
-1.24266093625e-05
-5.4011566296e-05
-7.9259784795e-06
-4.48987540466e-05
-4.96359212088e-06
-3.74946228467e-05
-3.1626486166e-06
-3.19382477185e-05
-1.85252678291e-06
-2.83047917924e-05
-2.35763076655e-05
-3.43639393379e-05
0.000129333848317
-6.6225491209e-05
0.000152114658135
-9.52001104876e-05
0.000166938574225
-0.000121421976767
0.000176879165518
-0.000145121757859
0.000181710450902
-0.000166581538348
0.000182075162406
-0.000186049530948
0.000178737255787
-0.000203724472503
0.000172540885114
-0.0002197771534
0.000164266451203
-0.000234355925935
0.000154600763869
-0.000247590201913
0.000144113105196
-0.000259592107236
0.00013325441238
-0.000270458458103
0.000122367184059
-0.000280273501235
0.000111701509644
-0.000289112097871
0.000101432660103
-0.000297042760005
9.16774929537e-05
-0.000304130059778
8.25083287966e-05
-0.000310436189514
7.39639991724e-05
-0.000316021699387
6.60583414995e-05
-0.000320945589369
5.87866421984e-05
-0.000325264987464
5.21305269301e-05
-0.00032903462606
4.60617055991e-05
-0.00033230627644
4.05448629977e-05
-0.000335128235427
3.55398972488e-05
-0.000337544911681
3.10036393544e-05
-0.000339596522957
2.68911528719e-05
-0.000341318891713
2.31567085411e-05
-0.000342743314058
1.9754481635e-05
-0.000343896481726
1.66390077047e-05
-0.000344800442926
1.37654848572e-05
-0.000345472550007
1.10899747186e-05
-0.000345925382845
8.56954137814e-06
-0.000346166721053
6.1622903466e-06
-0.000346199860241
3.82764465264e-06
-0.000346024301925
1.52741608189e-06
-0.000345634760862
-7.73881601451e-07
-0.000345018671008
-3.11097980874e-06
-0.00034415787719
-5.52048448636e-06
-0.000343031141556
-8.03805274534e-06
-0.000341613383637
-1.06945520466e-05
-0.000339876697723
-1.35164695756e-05
-0.000337791345416
-1.65259722992e-05
-0.000335326681669
-1.97412339688e-05
-0.000332451868734
-2.3177116125e-05
-0.000329136242363
-2.68461683725e-05
-0.000325349240175
-3.07597565788e-05
-0.000321059905531
-3.49290378239e-05
-0.000316236074724
-3.93654749503e-05
-0.000310843456232
-4.40806293581e-05
-0.000304844856034
-4.90850513054e-05
-0.000298199833297
-5.43862308076e-05
-0.000290865047328
-5.99856629476e-05
-0.000282795495666
-6.58752949274e-05
-0.000273946734381
-7.20336741555e-05
-0.000264278074253
-7.84222209016e-05
-0.000253756407853
-8.49822870077e-05
-0.000242360698718
-9.16328288693e-05
-0.00023008553795
-9.82707859229e-05
-0.000216946068601
-0.000104769331056
-0.000202978020775
-0.000110984843109
-0.000188244259459
-0.000116749065252
-0.000172829841586
-0.000121885870335
-0.000156851142331
-0.000126192190933
-0.000140451391424
-0.000129457569171
-0.000123801739133
-0.000131462621018
-0.000107115569348
-0.000131956081625
-9.06394131206e-05
-0.000130730660347
-7.46419326414e-05
-0.000127593739189
-5.94970546853e-05
-0.000122303676575
-4.54438952279e-05
-0.000115117033779
-3.29555370223e-05
-0.000105632015873
-2.21866733145e-05
-9.49453927209e-05
-1.33915584069e-05
-8.28195325339e-05
-6.7178520025e-06
-7.04485455822e-05
-2.0594763291e-06
-5.86692240519e-05
7.4263675607e-07
-4.76999988147e-05
1.77348057342e-06
-3.85249762396e-05
1.42602386761e-06
-3.15901082178e-05
3.69726264561e-07
-2.72437428511e-05
-2.32066435134e-05
-3.2540991892e-05
0.0001618745513
-6.29625824229e-05
0.000182536084946
-9.06197525809e-05
0.000194595612607
-0.000115493546441
0.000201752839828
-0.000137768259621
0.000203985052547
-0.000157707890331
0.000202014686299
-0.00017557586086
0.000196605123268
-0.000191611720177
0.000188576643027
-0.000206027474418
0.000178682105176
-0.00021900449593
0.000167577684726
-0.000230694199898
0.000155802707975
-0.000241221033151
0.000143781142875
-0.000250687353136
0.000131833399839
-0.000259179106818
0.000120193156952
-0.000266771204913
0.000109024649859
-0.00027353181734
9.84379945212e-05
-0.00027952526531
8.85016635014e-05
-0.000284813581644
7.92521994764e-05
-0.000289457034488
7.07016755708e-05
-0.000293513984947
6.28434708535e-05
-0.000297040408572
5.5656825913e-05
-0.000300089325976
4.91104953442e-05
-0.000302710286686
4.31656933497e-05
-0.000304948971929
3.77784495735e-05
-0.000306846926322
3.29014587782e-05
-0.000308441400654
2.84854904769e-05
-0.000309765273633
2.4480443679e-05
-0.00031084701707
2.08360864633e-05
-0.000311710678187
1.75025297891e-05
-0.000312375851077
1.44305185139e-05
-0.000312857596758
1.15715807415e-05
-0.000313166329023
8.87813303984e-06
-0.00031330771615
6.3035344297e-06
-0.000313282776032
3.80255938677e-06
-0.00031308798276
1.33247344075e-06
-0.000312714262984
-1.14775401642e-06
-0.000312145903053
-3.67949454931e-06
-0.000311361470453
-6.30507452368e-06
-0.000310335644495
-9.06403910721e-06
-0.000309039584493
-1.19907746793e-05
-0.00030744198787
-1.51142300379e-05
-0.000305510360407
-1.84577635882e-05
-0.000303212309199
-2.20394474488e-05
-0.000300516588083
-2.58729967955e-05
-0.000297393629096
-2.99692831669e-05
-0.000293815392234
-3.43381447643e-05
-0.000289754527154
-3.8990049124e-05
-0.000285183000266
-4.39371431049e-05
-0.000280070472838
-4.91932920739e-05
-0.000274382790325
-5.47728640656e-05
-0.000268081015194
-6.06881297565e-05
-0.000261121347777
-6.69454478852e-05
-0.000253456283337
-7.35404701871e-05
-0.00024503706559
-8.0452993351e-05
-0.000235817656147
-8.76417233923e-05
-0.000225759016939
-9.5041005555e-05
-0.000214835447852
-0.000102556465073
-0.000203037015841
-0.000110069267207
-0.000190379249769
-0.000117427129195
-0.00017689647354
-0.000124467632402
-0.000162659287774
-0.000130986243621
-0.000147753647531
-0.000136791486689
-0.000132304864901
-0.000141640930851
-0.000116459102938
-0.000145303272444
-0.000100395788323
-0.000147525860864
-8.43348408109e-05
-0.000148016935856
-6.85483483121e-05
-0.000146517036412
-5.33047408295e-05
-0.000142837185574
-3.90278283326e-05
-0.000136580366651
-2.59660802311e-05
-0.000128178476605
-1.45511653541e-05
-0.00011704652795
-5.03802372463e-06
-0.00010445803353
2.47828661969e-06
-9.03352685267e-05
7.669359172e-06
-7.56389703218e-05
1.04419768431e-05
-6.14411769897e-05
1.11175600528e-05
-4.83750441964e-05
9.84187043829e-06
-3.72480147463e-05
6.99612338208e-06
-2.87420585354e-05
3.1932835896e-06
-2.34414057953e-05
-2.00098338652e-05
-3.02616768509e-05
0.000192136234025
-5.87776086829e-05
0.00021105191551
-8.47261918814e-05
0.000220544075182
-0.000108005996809
0.000225032524547
-0.000128752032272
0.000224730971178
-0.000147193533454
0.000220456075056
-0.000163582116689
0.000212993596797
-0.000178162477572
0.000203156896612
-0.000191155668718
0.000191675189742
-0.000202751125055
0.000179173034982
-0.000213105568447
0.000166157044491
-0.000222346586514
0.000153022053305
-0.000230578765449
0.000140065469442
-0.000237890363415
0.000127504644082
-0.000244359091011
0.000115493264372
-0.000250056282105
0.000104135070405
-0.000255049372737
9.34946362936e-05
-0.00025940299263
8.36056987769e-05
-0.000263179130706
7.44776899522e-05
-0.000266436811468
6.61010248835e-05
-0.000269231614712
5.8451498977e-05
-0.000271615240341
5.14939876949e-05
-0.000273635211683
4.51855283089e-05
-0.000275334725431
3.94778244639e-05
-0.000276752618014
3.43192103482e-05
-0.00027792340047
2.96561307452e-05
-0.000278877325834
2.54342261386e-05
-0.000279640449173
2.15990669117e-05
-0.000280234654483
1.80965925241e-05
-0.000280677617127
1.48733386924e-05
-0.000280982657128
1.18764782273e-05
-0.000281158532558
9.05386473396e-06
-0.000281209202577
6.35405831972e-06
-0.000281133635828
3.72683954009e-06
-0.000280925490459
1.12417023514e-06
-0.000280571959047
-1.50144785322e-06
-0.00028005331842
-4.19830260228e-06
-0.000279343673884
-7.01489214324e-06
-0.000278412770072
-9.99512105945e-06
-0.000277226658493
-1.31770687542e-05
-0.000275749055354
-1.65920183345e-05
-0.00027394312241
-2.02638824722e-05
-0.000271773398584
-2.42093560695e-05
-0.000269207449539
-2.84391280126e-05
-0.000266216753741
-3.29601568672e-05
-0.000262776512974
-3.77785584559e-05
-0.000258864367979
-4.29023613446e-05
-0.000254458251175
-4.83434206621e-05
-0.000249533739416
-5.41179583597e-05
-0.000244061535671
-6.02452150022e-05
-0.000238005575705
-6.67442293626e-05
-0.000231322324586
-7.36288310742e-05
-0.000223961883803
-8.09010322014e-05
-0.000215870522541
-8.85444667701e-05
-0.000206995829895
-9.65165132754e-05
-0.000197290781966
-0.000104746138281
-0.000186724829311
-0.000113122483976
-0.000175280567565
-0.000121513577752
-0.00016297786735
-0.0001297298605
-0.000149844943484
-0.000137600568172
-0.000135966144453
-0.000144865040625
-0.000121423090168
-0.000151334520007
-0.00010635688494
-0.000156707101064
-9.09163403042e-05
-0.000160743771336
-7.52989650433e-05
-0.000163143167694
-5.97327779892e-05
-0.000163583014674
-4.45238446378e-05
-0.000161725798881
-2.99519200402e-05
-0.000157408862979
-1.6422824622e-05
-0.000150109125706
-4.26119259272e-06
-0.000140339675578
6.30257103084e-06
-0.000127609793184
1.45927763632e-05
-0.000112747711578
2.05742680262e-05
-9.63162428938e-05
2.41023970322e-05
-7.91665334311e-05
2.49931276878e-05
-6.23312868244e-05
2.33755427601e-05
-4.67565112336e-05
1.94821135819e-05
-3.33541105307e-05
1.37565122358e-05
-2.30163355335e-05
6.78053582806e-06
-1.64596649198e-05
-1.32310626096e-05
-2.77728261253e-05
0.000219908777347
-5.41589570759e-05
0.000237437890847
-7.82071507172e-05
0.000244592140492
-9.97697694612e-05
0.000246595022847
-0.000118941058386
0.000243902144547
-0.000135912024468
0.000237426928493
-0.000150908934228
0.00022799039675
-0.000164161662297
0.000216409516166
-0.000175881360911
0.00020339478102
-0.000186250679299
0.000189542245853
-0.000195421922341
0.000175328179846
-0.000203520728721
0.000161120750763
-0.000210652219706
0.000147196850458
-0.000216907299445
0.000133759611927
-0.000222367687547
0.000120953538823
-0.000227109188345
0.000108876455103
-0.000231203336426
9.75886656135e-05
-0.000234717883261
8.71201238408e-05
-0.000237716641303
7.74763229188e-05
-0.000240259105385
6.86433600848e-05
-0.000242400116103
6.05923772372e-05
-0.000244189693097
5.32834283622e-05
-0.000245673057679
4.66687533158e-05
-0.00024689079868
4.06954229931e-05
-0.000247879099233
3.53073667435e-05
-0.000248669959338
3.0446845675e-05
-0.000249291381783
2.60555036923e-05
-0.000249767499645
2.20750405802e-05
-0.000250118620237
1.84475698088e-05
-0.000250361147907
1.5115723963e-05
-0.000250507334484
1.20225222582e-05
-0.000250564922819
9.11130885144e-06
-0.000250536714735
6.32570042525e-06
-0.00025042010368
3.61007412808e-06
-0.000250206371354
9.10273034437e-07
-0.000249879259769
-1.82873239917e-06
-0.000249414847632
-4.66289516169e-06
-0.000248782139112
-7.64778916766e-06
-0.000247944676746
-1.08327799736e-05
-0.000246861492917
-1.42604553876e-05
-0.000245488959793
-1.79647585342e-05
-0.00024378337254
-2.196967846e-05
-0.000241703950018
-2.62889868237e-05
-0.000239215542444
-3.09277405606e-05
-0.00023629019215
-3.58857077444e-05
-0.000232906976178
-4.11619687802e-05
-0.000229050140292
-4.67593845846e-05
-0.000224705880046
-5.26878607344e-05
-0.000219858324154
-5.89656856574e-05
-0.000214485539476
-6.56181620303e-05
-0.000208556505679
-7.26734165968e-05
-0.000202029326777
-8.01561511473e-05
-0.000194852541319
-8.80779491241e-05
-0.000186966547371
-9.64305762382e-05
-0.000178312696633
-0.00010517046686
-0.00016883302717
-0.000114225893286
-0.000158495340537
-0.00012346023918
-0.000147268147569
-0.000132740824674
-0.00013518323172
-0.000141814814006
-0.000122252614143
-0.000150531210972
-0.000108584584005
-0.000158533081728
-9.42497769187e-05
-0.000165669328394
-7.94130637374e-05
-0.000171543801463
-6.42263384506e-05
-0.000175930448718
-4.89109818859e-05
-0.000178458429057