/*--------------------------------*- C++ -*----------------------------------*\
| =========                 |                                                 |
| \\      /  F ield         | OpenFOAM: The Open Source CFD Toolbox           |
|  \\    /   O peration     | Version:  v1806                                 |
|   \\  /    A nd           | Web:      www.OpenFOAM.com                      |
|    \\/     M anipulation  |                                                 |
\*---------------------------------------------------------------------------*/
FoamFile
{
    version     2.0;
    format      ascii;
    class       surfaceScalarField;
    location    "300";
    object      phi;
}
// * * * * * * * * * * * * * * * * * * * * * * * * * * * * * * * * * * * * * //

dimensions      [0 3 -1 0 0 0 0];
oriented        oriented;


internalField   nonuniform List<scalar> 
12640
(
2.36747217206e-05
-2.36747885775e-05
3.34041067908e-05
-9.72946366903e-06
3.76683747096e-05
-4.2643485972e-06
2.93080701676e-05
8.36023911419e-06
9.04401556342e-06
2.02639820958e-05
-2.18871941319e-05
3.09311436834e-05
-5.38765973906e-05
3.19893533287e-05
-8.49611270682e-05
3.10844904455e-05
-0.000115427798571
3.04666367626e-05
-0.000145047226085
2.96193966228e-05
-0.000173534053253
2.84867990899e-05
-0.000200663296212
2.71292175782e-05
-0.000226282175237
2.56188558618e-05
-0.000250303389022
2.4021192604e-05
-0.000272693345466
2.23899369852e-05
-0.000293459880306
2.07665168439e-05
-0.000312641039002
1.91811420377e-05
-0.000330295510502
1.76544559316e-05
-0.00034649486223
1.61993372045e-05
-0.000361317500301
1.48226243625e-05
-0.000374844163385
1.35266501892e-05
-0.000387154709996
1.23105343207e-05
-0.000398325949519
1.11712278561e-05
-0.000408430285899
1.01043251494e-05
-0.000417534970257
9.10467358589e-06
-0.000425701795064
8.16681433188e-06
-0.000432987093424
7.28528819453e-06
-0.000439441939146
6.45483573392e-06
-0.000445112463879
5.67051492332e-06
-0.000450040229056
4.92775544792e-06
-0.000454262604076
4.22236535958e-06
-0.000457813125182
3.55051145387e-06
-0.000460721774127
2.908639256e-06
-0.000463015009766
2.29322587927e-06
-0.000464715501776
1.70048212293e-06
-0.000465842154216
1.12664246312e-06
-0.000466409757101
5.67592740137e-07
-0.000466429907654
2.01403196439e-08
-0.000465909700627
-5.20217458331e-07
-0.000464857564031
-1.05214712549e-06
-0.000463287813391
-1.56976141737e-06
-0.000461215063266
-2.07276101821e-06
-0.000458652483018
-2.56259143458e-06
-0.00045561118402
-3.04131031623e-06
-0.000452100007834
-3.51118783975e-06
-0.000448125460509
-3.97455912073e-06
-0.000443691713237
-4.43375944171e-06
-0.000438800650681
-4.8910748785e-06
-0.000433451971178
-5.34869223588e-06
-0.000427643348832
-5.80863524395e-06
-0.000421370669297
-6.27269287788e-06
-0.000414628345976
-6.7423368475e-06
-0.000407409719354
-7.21864063154e-06
-0.000399707531945
-7.7022016263e-06
-0.000391514464089
-8.19308260178e-06
-0.000382823702298
-8.69077678071e-06
-0.000373629503407
-9.19421446494e-06
-0.000363927703767
-9.70181551379e-06
-0.000353716116614
-1.02116036845e-05
-0.000342994749709
-1.07213838138e-05
-0.00033176577455
-1.1228992813e-05
-0.000320033172687
-1.17326199868e-05
-0.000307801990699
-1.22312009475e-05
-0.000295077135828
-1.27248743866e-05
-0.00028186165705
-1.32154991936e-05
-0.000268154461199
-1.37072168777e-05
-0.000253947431832
-1.42070513274e-05
-0.000239221952672
-1.47255017643e-05
-0.000223944879565
-1.52770966824e-05
-0.000208064091013
-1.58808129164e-05
-0.000191503982095
-1.6560134424e-05
-0.000174161388953
-1.73426199973e-05
-0.000155902938909
-1.82584789763e-05
-0.000136567424167
-1.9335546099e-05
-0.000115983065738
-2.05843927245e-05
-9.40120035435e-05
-2.19710999605e-05
-7.06113966985e-05
-2.34006456634e-05
-4.59080061311e-05
-2.47034313549e-05
-2.07480787206e-05
-2.51600229029e-05
-2.07481206454e-05
1.2714151295e-05
-3.63890637392e-05
1.25016744634e-05
-9.51711325048e-06
-6.23208259954e-06
1.44693136292e-05
-3.52381336516e-05
3.7366242858e-05
-6.31048167029e-05
4.81306331457e-05
-8.96850505654e-05
5.75113525035e-05
-0.000118770280358
6.10745594765e-05
-0.000149174146981
6.14883352903e-05
-0.000179381945059
6.06744130605e-05
-0.00020871806559
5.89554968087e-05
-0.000236795481966
5.65641953875e-05
-0.00026336511913
5.36988361523e-05
-0.000288276387709
5.05301063368e-05
-0.000311454006792
4.71987949611e-05
-0.00033287993801
4.38158520038e-05
-0.000352578183319
4.04647471315e-05
-0.00037060209952
3.72050437216e-05
-0.000387024111301
3.40764541546e-05
-0.000401927662443
3.11028752499e-05
-0.00041540114899
2.82960985613e-05
-0.000427533537168
2.56590264368e-05
-0.00043841134855
2.31883343177e-05
-0.00044811671837
2.08765866678e-05
-0.000456726263979
1.87138601043e-05
-0.000464310545209
1.66889444972e-05
-0.000470933940651
1.47901996256e-05
-0.000476654802592
1.30061402831e-05
-0.000481525788293
1.1325811575e-05
-0.000485594288883
9.7390059162e-06
-0.000488902901406
8.23635820608e-06
-0.000491489908842
6.80936327371e-06
-0.000493389747318
5.4503400934e-06
-0.000494633438956
4.15232127437e-06
-0.000495248832713
2.90860956304e-06
-0.00049526021476
1.71185431064e-06
-0.000494688171348
5.54588648114e-07
-0.00049355510733
-5.65481398179e-07
-0.000491892502576
-1.64247513813e-06
-0.000489737740385
-2.67499004423e-06
-0.000487119364168
-3.67053439999e-06
-0.000484053271323
-4.63586500455e-06
-0.000480550545133
-5.57549868441e-06
-0.000476619668931
-6.49347879499e-06
-0.000472267189503
-7.3938016974e-06
-0.000467497871568
-8.28051741285e-06
-0.000462314707112
-9.15773605898e-06
-0.000456718888595
-1.00295901306e-05
-0.000450709806849
-1.09001696827e-05
-0.00044428508744
-1.17734244029e-05
-0.000437440696009
-1.26530403549e-05
-0.000430171113837
-1.35422884489e-05
-0.000422469605476
-1.44438595601e-05
-0.000414328568923
-1.53596912868e-05
-0.000405739976445
-1.62908091875e-05
-0.000396695879478
-1.72371944491e-05
-0.000387188965616
-1.81977065373e-05
-0.000377213119351
-1.91700764887e-05
-0.000366763952236
-2.01509994396e-05
-0.000355839234135
-2.11363385529e-05
-0.000344439174261
-2.21214615508e-05
-0.000332566473296
-2.31017117055e-05
-0.000320226090321
-2.40730220271e-05
-0.000307424649326
-2.50326611844e-05
-0.00029416943777
-2.5980106342e-05
-0.000280466941966
-2.69180156591e-05
-0.000266320894956
-2.78532856783e-05
-0.000251729797706
-2.87981706811e-05
-0.000236683946714
-2.97713759296e-05
-0.000221162023676
-3.0799043276e-05
-0.000205127277329
-3.19155838456e-05
-0.00018852357783
-3.3163859153e-05
-0.000171271800799
-3.45944235579e-05
-0.000153267331779
-3.62629759468e-05
-0.000134380778795
-3.82221292496e-05
-0.000114464579272
-4.05006244405e-05
-9.33680835731e-05
-4.30676286743e-05
-7.09830656344e-05
-4.57856994801e-05
-4.7433217917e-05
-4.82533202792e-05
-2.351026882e-05
-4.90830100085e-05
-4.42584345211e-05
-8.1772744873e-06
-2.82118148592e-05
-2.91788250156e-05
1.14843860495e-05
-5.50053604459e-05
4.02958212757e-05
-7.82758392646e-05
6.06367005604e-05
-0.000104609809139
7.44645845087e-05
-0.000130765554132
8.36670805266e-05
-0.000157654196588
8.79631862729e-05
-0.000185028015806
8.88621391642e-05
-0.000212000833341
8.76472156247e-05
-0.000237988205422
8.49428538234e-05
-0.000262636875271
8.12128504988e-05
-0.000285745020165
7.6806966387e-05
-0.000307214163535
7.1999235514e-05
-0.000327017983968
6.70026014406e-05
-0.000345180089068
6.19779436782e-05
-0.000361757221683
5.7041866636e-05
-0.000376826471036
5.22742804853e-05
-0.000390475728611
4.77256994775e-05
-0.000402796811354
4.34239462101e-05
-0.000413880731166
3.93800069161e-05
-0.000423814630471
3.55929146779e-05
-0.000432679963003
3.20536560792e-05
-0.000440551568488
2.87481816826e-05
-0.000447497363174
2.5659644566e-05
-0.000453578435469
2.27700067638e-05
-0.000458849393241
2.0061147555e-05
-0.000463358853637
1.75155909209e-05
-0.000467149999802
1.51169481014e-05
-0.000470261155227
1.28501516767e-05
-0.000472726355567
1.07015489433e-05
-0.000474575898603
8.65889658152e-06
-0.000475836836186
6.71126795436e-06
-0.000476533349671
4.84882480571e-06
-0.00047668707254
3.06232241799e-06
-0.000476317569331
1.34234081169e-06
-0.000475443728245
-3.19262733485e-07
-0.000474092487485
-1.9167327158e-06
-0.000472284848063
-3.45012509869e-06
-0.0004700286737
-4.9311752592e-06
-0.000467333764835
-6.36545412705e-06
-0.000464210463843
-7.75917722746e-06
-0.000460667979914
-9.11799387745e-06
-0.000456714053392
-1.04474169968e-05
-0.00045235486371
-1.1753003115e-05
-0.000447594961721
-1.30404315946e-05
-0.000442437196073
-1.4315513978e-05
-0.000436882648707
-1.55841502614e-05
-0.000430930597916
-1.68522333382e-05
-0.000424578531314
-1.81255043966e-05
-0.000417822225836
-1.94093593493e-05
-0.000410655913433
-2.0708614928e-05
-0.000403072543007
-2.20272442195e-05
-0.000395064147002
-2.33681021187e-05
-0.000386622308734
-2.47326624804e-05
-0.000377738720681
-2.61207981618e-05
-0.000368405808275
-2.75306348526e-05
-0.000358617385003
-2.89585163521e-05
-0.000348369288526
-3.03991128202e-05
-0.000337659941102
-3.18457036144e-05
-0.000326490765961
-3.32906547049e-05
-0.000314866392141
-3.47261043229e-05
-0.000302794576225
-3.61448571783e-05
-0.000290285780374
-3.75414770839e-05
-0.000277352348497
-3.89135587477e-05
-0.000264007240864
-4.02631446267e-05
-0.000250262318202
-4.15982301528e-05
-0.000236126126806
-4.29343846428e-05
-0.000221601204339
-4.42963214254e-05
-0.000206681099577
-4.57191717527e-05
-0.000191346859697
-4.72498479441e-05
-0.000175563308433
-4.89474353917e-05
-0.00015927558024
-5.08821775723e-05
-0.000142405855432
-5.31327278487e-05
-0.000124850738978
-5.57772743664e-05
-0.000106479633367
-5.8871760374e-05
-8.71400034674e-05
-6.24072905663e-05
-6.66914341883e-05
-6.62342987712e-05
-4.50889408549e-05
-6.98558404951e-05
-2.2616790129e-05
-7.1555218953e-05
-6.68752367402e-05
-2.71539675611e-05
-1.05797646329e-06
-5.41559184287e-05
3.8486300913e-05
-7.90585097777e-05
6.51983938591e-05
-0.000103878543635
8.54567188872e-05
-0.000129057036578
9.964306334e-05
-0.000153961611392
0.000108571642655
-0.000178669665081
0.000112671228092
-0.00020298879522
0.000113181257907
-0.000226504930891
0.00011116333983
-0.000248900490459
0.000107338401908
-0.000269971600108
0.000102283948447
-0.000289613922919
9.64492775077e-05
-0.000307797326903
9.01826277224e-05
-0.000324542387361
8.37476502565e-05
-0.000339901667479
7.7337212209e-05
-0.00035394571557
7.10859033623e-05
-0.000366753128244
6.50816819413e-05
-0.000378403895637
5.93764559133e-05
-0.000388975256954
5.39952967643e-05
-0.000398539370527
4.89441099861e-05
-0.0004071622219
4.42157557515e-05
-0.000414903324603
3.97947487074e-05
-0.000421815893856
3.56607410455e-05
-0.000427947276521
3.17910175076e-05
-0.000433339500386
2.81622210454e-05
-0.00043802986077
2.47514984426e-05
-0.000442051498383
2.15372191183e-05
-0.000445433943609
1.84993839068e-05
-0.00044820361609
1.56198147539e-05
-0.000450384289924
1.2882213283e-05
-0.000451997540515
1.02721376352e-05
-0.000453063108804
7.77682652688e-06
-0.000453598966726
5.38467289027e-06
-0.000453621495576
3.08484119671e-06
-0.000453148118024
8.68953059006e-07
-0.00045220054077
-1.26685037209e-06
-0.000450794374379
-3.32290951027e-06
-0.000448939883652
-5.30462643761e-06
-0.000446650048749
-7.22102084063e-06
-0.000443936143146
-9.07937067739e-06
-0.000440808538839
-1.08867925849e-05
-0.000437276391274
-1.26501528107e-05
-0.000433347514763
-1.43763050133e-05
-0.000429028276485
-1.60722532591e-05
-0.000424323480507
-1.77452396073e-05
-0.000419236246993
-1.94027599291e-05
-0.000413767900744
-2.10525091466e-05
-0.000407917891064
-2.2702256094e-05
-0.000401683763248
-2.43596455222e-05
-0.000395061206115
-2.60319302666e-05
-0.000388044195093
-2.77256400074e-05
-0.000380625250372
-2.94462035143e-05
-0.00037279581965
-3.1197547732e-05
-0.00036454678937
-3.29817082151e-05
-0.000355869113874
-3.47984894812e-05
-0.00034675454268
-3.66452224841e-05
-0.000337196406398
-3.8516669491e-05
-0.000327190411217
-4.04051255167e-05
-0.000316735376671
-4.23007561354e-05
-0.000305833844166
-4.4192205872e-05
-0.000294492480692
-4.60674869453e-05
-0.00028272220142
-4.7915156297e-05
-0.000270537946699
-4.97257521509e-05
-0.000257958062699
-5.14934637759e-05
-0.000245003218625
-5.32180102134e-05
-0.000231694924691
-5.49065462213e-05
-0.000218053568375
-5.65757635401e-05
-0.000204095820963
-5.82540919583e-05
-0.00018983214654
-5.99828697228e-05
-0.00017526345321
-6.18185653306e-05
-0.000160377360048
-6.38335531749e-05
-0.000145145045269
-6.61145176586e-05
-0.000129517119706
-6.87606797561e-05
-0.000113418045473
-7.18763763836e-05
-9.67388821203e-05
-7.55509528303e-05
-7.93335470097e-05
-7.9812654442e-05
-6.10323119963e-05
-8.45355639301e-05
-4.16207153949e-05
-8.92674739622e-05
-2.10576684615e-05
-9.21182813291e-05
-8.79329361577e-05
-3.56705004991e-05
3.46125415281e-05
-6.42198413407e-05
6.70356307654e-05
-9.1040134621e-05
9.20186736402e-05
-0.000116700860886
0.000111117432129
-0.00014132814508
0.000124270335593
-0.000164884535056
0.000132128021762
-0.000187519240358
0.000135305923359
-0.000209195763325
0.000134857771224
-0.000229772896531
0.000131740463539
-0.000249146238898
0.000126711734663
-0.000267260158897
0.000120397858736
-0.00028410686367
0.000113295972383
-0.000299714612092
0.000105790366173
-0.000314134250916
9.81672790055e-05
-0.000327427858582
9.06308098163e-05
-0.00033966063789
8.33186726115e-05
-0.000350895891511
7.63169255956e-05
-0.000361192394763
6.96729492736e-05
-0.000370603390626
6.34062828713e-05
-0.000379176545336
5.75172550569e-05
-0.000386954383532
5.19935844529e-05
-0.000393974898511
4.68152543157e-05
-0.000400272170875
4.19580041621e-05
-0.000405876922075
3.73957595604e-05
-0.000410816983502
3.31022733971e-05
-0.000415117688462
2.90521943762e-05
-0.00041880220385
2.52217254796e-05
-0.000421891818196
2.15889892112e-05
-0.000424406198854
1.81341862906e-05
-0.000426363635904
1.48396411341e-05
-0.000427781294885
1.16897872695e-05
-0.000428675459883
8.67098202258e-06
-0.000429061567767
5.77077102012e-06
-0.00042895387832
2.97714178782e-06
-0.000428366293353
2.81357961524e-07
-0.000427319842612
-2.31331129843e-06
-0.000425832798882
-4.80996355932e-06
-0.000423914774743
-7.22266097943e-06
-0.000421576933495
-9.55887268771e-06
-0.000418829974785
-1.18263401215e-05
-0.000415684025399
-1.40327529566e-05
-0.000412148339119
-1.6185850256e-05
-0.000408231076126
-1.82935794712e-05
-0.000403939106553
-2.03642345193e-05
-0.000399277818372
-2.24065398222e-05
-0.000394250926936
-2.4429663663e-05
-0.000388860298086
-2.6443150687e-05
-0.000383105803219
-2.84567639588e-05
-0.000376985231442
-3.04802307352e-05
-0.000370494285458
-3.25228900443e-05
-0.000363626689835
-3.45932499124e-05
-0.000356374435843
-3.66984722012e-05
-0.000348728182004
-3.88438168109e-05
-0.000340677816989
-4.10320889382e-05
-0.000332213180476
-4.32631423045e-05
-0.000323324922593
-4.55334971884e-05
-0.000314005462352
-4.78361471905e-05
-0.000304249984497
-5.01606213571e-05
-0.000294057406753
-5.24933525051e-05
-0.000283431223847
-5.48184079141e-05
-0.000272380152515
-5.71185780304e-05
-0.000260918481111
-5.93768479411e-05
-0.000249066046766
-6.15782073133e-05
-0.000236847832878
-6.37116989457e-05
-0.000224293000112
-6.57728647716e-05
-0.000211433567375
-6.77660011853e-05
-0.000198302784843
-6.97065687317e-05
-0.000184932145853
-7.16247540246e-05
-0.000171349641968
-7.35653970713e-05
-0.000157576466857
-7.55917643765e-05
-0.000143622688043
-7.77873563711e-05
-0.000129484894698
-8.02523361015e-05
-0.000115141882825
-8.31037176567e-05
-0.000100547229858
-8.6471056546e-05
-8.56191441736e-05
-9.04790670058e-05
-7.02268384461e-05
-9.52049900624e-05
-5.41940055984e-05
-0.000100568423625
-3.72145265825e-05
-0.000106246972331
-1.89972763874e-05
-0.000110335581563
-0.00010693021735
-3.55672849805e-05
7.01797646852e-05
-6.68988547675e-05
9.83671810025e-05
-9.51301361679e-05
0.000120249941876
-0.000121092379238
0.000137079663684
-0.00014513043496
0.000148308380911
-0.000167456351629
0.000154453928977
-0.000188324003144
0.000156173566134
-0.000207860852706
0.000154394612459
-0.000226117482793
0.00014999708543
-0.000243140639754
0.000143734883415
-0.000258984071307
0.000136241281942
-0.000273710324332
0.000128022216927
-0.000287385992248
0.000119466025447
-0.000300076301538
0.000110857579554
-0.000311841191791
0.000102395691231
-0.00032273343957
9.42109115241e-05
-0.000332798468773
8.63819459124e-05
-0.000342075183933
7.89496555809e-05
-0.000350597214863
7.19283049845e-05
-0.000358394155159
6.53141866074e-05
-0.000365492581246
5.90920018571e-05
-0.000371916790779
5.32394552416e-05
-0.000377689287859
4.77304926933e-05
-0.000382831079935
4.25375431376e-05
-0.000387361855208
3.76330401925e-05
-0.000391300097198
3.29904278812e-05
-0.000394663176641
2.85847963979e-05
-0.000397467445891
2.43932498574e-05
-0.000399728356211
2.03950879019e-05
-0.000401460585189
1.65718612594e-05
-0.000402678160126
1.29073531776e-05
-0.000403394585239
9.38739785948e-06
-0.000403623088396
5.99926466794e-06
-0.000403377216628
2.73126025757e-06
-0.000402671702218
-4.24166392158e-07
-0.000401522104268
-3.46291924549e-06
-0.000399941828262
-6.39024963131e-06
-0.000397942503028
-9.2219964164e-06
-0.000395535602516
-1.19657835423e-05
-0.000392732188847
-1.46297643361e-05
-0.000389542833611
-1.72221189367e-05
-0.000385977428297
-1.97512665731e-05
-0.000382044963998
-2.22260550254e-05
-0.000377753289283
-2.46559208021e-05
-0.000373108851266
-2.70509897112e-05
-0.000368116428484
-2.94220986858e-05
-0.000362778870647
-3.17807211246e-05
-0.000357096868054
-3.41387795782e-05
-0.000351068779913
-3.65083323263e-05
-0.000344690556795
-3.89011271023e-05
-0.000337955794463
-4.13280266756e-05
-0.000330855954405
-4.37983272509e-05
-0.000323380779427
-4.63190073361e-05
-0.000315518919368
-4.88939651681e-05
-0.000307258763594
-5.15233148459e-05
-0.000298589469614
-5.42028085901e-05
-0.000289502144625
-5.69234901892e-05
-0.000279991098969
-5.9671685651e-05
-0.000270055109744
-6.24293609004e-05
-0.00025969855239
-6.5174984996e-05
-0.000248932336603
-6.78848140137e-05
-0.000237774528123
-7.05346770979e-05
-0.000226250489168
-7.31022673844e-05
-0.000214392759757
-7.55694498913e-05
-0.000202240111015
-7.79255354807e-05
-0.000189836151539
-8.01699830006e-05
-0.000177228555913
-8.23141870991e-05
-0.000164464461497
-8.43888715799e-05
-0.000151589982717
-8.64398993529e-05
-0.000138647126877
-8.85346441872e-05
-0.00012566747756
-9.07670301356e-05
-0.00011267073931
-9.32490995113e-05
-9.96614038498e-05
-9.61130791307e-05
-8.66198317598e-05
-9.95126559448e-05
-7.34917851511e-05
-0.00010360714197
-6.01663994452e-05
-0.000108530403264
-4.64753122765e-05
-0.000114259539423
-3.21017644225e-05
-0.000120620555523
-1.65588634753e-05
-0.00012587848915
-0.000123489106832
-3.43754741575e-05
0.00010455526973
-6.60065652147e-05
0.000129998271764
-9.44649891358e-05
0.000148708358554
-0.000120143104424
0.000162757770262
-0.000143403244365
0.000171568512243
-0.000164568246429
0.000175618922942
-0.00018395169811
0.000175557010186
-0.000201786849899
0.000172229756922
-0.000218247048225
0.000166457276566
-0.000233477650885
0.000158965478875
-0.000247602707763
0.000150366331553
-0.000260727822437
0.000141147324207
-0.000272940417954
0.000131678613461
-0.000284310547675
0.000122227701649
-0.000294892869418
0.00011297800527
-0.000304729515195
0.000104047549523
-0.000313853238487
9.55056613987e-05
-0.000322290286841
8.73866961061e-05
-0.000330062680479
7.97006908056e-05
-0.000337189812214
7.24413105376e-05
-0.000343689443241
6.55916251097e-05
-0.000349578243717
5.91282479639e-05
-0.000354872037054
5.30242782982e-05
-0.00035958588216
4.72513805089e-05
-0.000363734089405
4.17812396801e-05
-0.000367330229577
3.65865602412e-05
-0.000370387165157
3.16417240744e-05
-0.00037291711877
2.69231954432e-05
-0.000374931788172
2.24097491179e-05
-0.00037644248511
1.80825498262e-05
-0.000377460216497
1.39250759626e-05
-0.000377995710399
9.92288288619e-06
-0.000378059912373
6.0634573814e-06
-0.000377665554464
2.33689286732e-06
-0.000376827584915
-1.26214552977e-06
-0.00037555643229
-4.73408151244e-06
-0.000373861038852
-8.08565280524e-06
-0.000371754444464
-1.13286006574e-05
-0.00036924857346
-1.44716645718e-05
-0.00036635512295
-1.75232250611e-05
-0.000363085554111
-2.04916982299e-05
-0.000359450923211
-2.3385908182e-05
-0.000355461627371
-2.6215361878e-05
-0.000351127101852
-2.89904576511e-05
-0.000346455482894
-3.17226203702e-05
-0.000341453247745
-3.44243459216e-05
-0.000336124849615
-3.71091317826e-05
-0.000330472374002
-3.97912681857e-05
-0.000324495252811
-4.24854670332e-05
-0.000318190081713
-4.5206312266e-05
-0.000311550592492
-4.79675305705e-05
-0.000304567829203
-5.07811058383e-05
-0.000297230570977
-5.36562815405e-05
-0.000289526029022
-5.65985237641e-05
-0.000281440810415
-5.96085507965e-05
-0.000272962152451
-6.26814845333e-05
-0.00026407939868
-6.5806262586e-05
-0.000254785558343
-6.89655451557e-05
-0.000245078963115
-7.21359758143e-05
-0.000234964741747
-7.5289226491e-05
-0.000224456089952
-7.83934863303e-05
-0.000213575283075
-8.14155048992e-05
-0.00020235384238
-8.43237293557e-05
-0.000190832885611
-8.70904283531e-05
-0.000179062229913
-8.96962132547e-05
-0.00016709814529
-9.21340900942e-05
-0.000155005181415
-9.44071739341e-05
-0.000142847601583
-9.65464746643e-05
-0.000130690722119
-9.85968026848e-05
-0.000118599156217
-0.000100626234276
-0.000106627144468
-0.000102739066807
-9.48162585516e-05
-0.000105060010945
-8.31946866791e-05
-0.000107734677506
-7.17667352791e-05
-0.000110940634917
-6.05029050605e-05
-0.000114871000781
-4.9316126192e-05
-0.000119717211902
-3.80436036809e-05
-0.000125532087587
-2.64149668989e-05
-0.000132249207849
-1.38088634044e-05
-0.000138484639224
-0.000137297971361
-3.28518011719e-05
0.00013740704537
-6.34516765877e-05
0.00016059813986
-9.11432948677e-05
0.00017639997055
-0.000115992819882
0.000187607288542
-0.000138266517915
0.000193842203475
-0.000158287390328
0.000195639788743
-0.000176383545938
0.000193653159426
-0.000192838957002
0.000188685161785
-0.000207891148452
0.000181509461885
-0.000221739158587
0.000172813482875
-0.000234544767936
0.000163171934697
-0.000246435287757
0.000153037837737
-0.000257507210115
0.000142750529418
-0.000267831258471
0.000132551743514
-0.000277458133289
0.000122604873503
-0.000286424097917
0.000113013507504
-0.000294755729608
0.000103837286383
-0.000302473514706
9.51044744701e-05
-0.000309594287481
8.68214568181e-05
-0.000316132709828
7.89797261171e-05
-0.000322102063009
7.15609715111e-05
-0.000327514609794
6.45407879652e-05
-0.000332381730615
5.78913923119e-05
-0.00033671397208
5.15836151326e-05
-0.000340521088447
4.55883491361e-05
-0.000343812113773
3.98775785595e-05
-0.000346595472857
3.44250760124e-05
-0.000348879128474
2.92068437427e-05
-0.000350670765992
2.4201379115e-05
-0.000351977993187
1.93897692678e-05
-0.000352808447563
1.47555222895e-05
-0.000353169754695
1.02841815727e-05
-0.000353070024776
5.96371874986e-06
-0.000352519555627
1.78641465517e-06
-0.000351529986073
-2.25172424674e-06
-0.00035011167317
-6.15240359719e-06
-0.000348273971942
-9.92336329511e-06
-0.000346028212122
-1.35743698725e-05
-0.000343386347177
-1.71135390889e-05
-0.000340360847163
-2.05487348638e-05
-0.000336964455253
-2.38881001828e-05
-0.00033320990448
-2.71404692913e-05
-0.000329109587657
-3.03156893682e-05
-0.000324675179685
-3.34248766608e-05
-0.000319917211717
-3.64805997877e-05
-0.000314844602778
-3.94969667681e-05
-0.000309464165464
-4.24895815098e-05
-0.000303780116143
-4.54753304745e-05
-0.000297793634314
-4.84719624376e-05
-0.000291502530496
-5.14974303174e-05
-0.000284901096184
-5.45689798076e-05
-0.00027798020427
-5.77020134165e-05
-0.00027072771745
-6.09087847522e-05
-0.000263129265532
-6.41969928282e-05
-0.000255169356404
-6.75684777565e-05
-0.000246832835861
-7.10180235775e-05
-0.000238106778506
-7.45323390091e-05
-0.000228982360707
-7.80899825136e-05
-0.000219457064679
-8.16612918411e-05
-0.000209536553453
-8.52097580453e-05
-0.000199236252533
-8.86938079606e-05
-0.000188583083156
-9.20686953275e-05
-0.000177615239726
-9.52915942056e-05
-0.000166383299617
-9.83223903962e-05
-0.000154949862874
-0.000101129672315
-0.000143384307262
-0.000103699668689
-0.000131770926044
-0.000106020578531
-0.000120193466127
-0.000108123958613
-0.000108737831416
-0.000110052461777
-9.7492915317e-05
-0.000111871175336
-8.65400394617e-05
-0.00011369196828
-7.59442040117e-05
-0.000115655872778
-6.57566929053e-05
-0.00011792221599
-5.60050322688e-05
-0.000120692323956
-4.668020474e-05
-0.000124195857292
-3.77234433857e-05
-0.000128674000553
-2.8968665772e-05
-0.000134286893201
-2.02142616881e-05
-0.000141003645904
-1.07743244609e-05
-0.000147924577403
-0.000148072320023
-3.09211943565e-05
0.0001683282715
-5.99697624009e-05
0.00018964671438
-8.63610420118e-05
0.000202791249189
-0.000110027459088
0.00021127370198
-0.000131156673979
0.000214971413792
-0.000150033256815
0.000214516366727
-0.000166970661111
0.000210590558812
-0.000182264879902
0.000203979375649
-0.000196176284411
0.000195420861442
-0.000208924304454
0.000185561497906
-0.000220684672089
0.000174932297253
-0.000231591881512
0.000163945041991
-0.000241744701719
0.000152903344378
-0.000251213441446
0.000142020477904
-0.00026004738453
0.000131438811184
-0.000268281284062
0.000121247401562
-0.000275940365664
0.000111496362465
-0.00028304378516
0.000102207888398
-0.000289606789311
9.33844553752e-05
-0.0002956419439
8.50148750781e-05
-0.000301159779628
7.70788015911e-05
-0.000306169129849
6.95501324994e-05
-0.000310677343101
6.23995998347e-05
-0.000314690474808
5.55967410351e-05
-0.00031821350423
4.91113726538e-05
-0.000321250587013
4.29146552946e-05
-0.000323805331962
3.69798147348e-05
-0.000325881082908
3.1282588239e-05
-0.000327481195652
2.58014851642e-05
-0.000328609311379
2.05178780117e-05
-0.000329269564585
1.54157681512e-05
-0.000329466469599
1.04810788321e-05
-0.000329204775066
5.70201591619e-06
-0.000328491558719
1.07318988192e-06
-0.000327337626735
-3.40566472901e-06
-0.000325753248972
-7.73678990599e-06
-0.000323746449659
-1.1930171249e-05
-0.000321328005744
-1.59928225808e-05
-0.000318510315535
-1.99312382874e-05
-0.0003153069614
-2.37520982336e-05
-0.000311732321085
-2.74627500182e-05
-0.000307801207214
-3.10715930175e-05
-0.000303528483162
-3.4588423651e-05
-0.000298928625934
-3.80247445482e-05
-0.000294015218437
-4.13940184209e-05
-0.000288800366879
-4.47118299986e-05
-0.000283294056062
-4.79959045925e-05
-0.000277503476398
-5.12659230591e-05
-0.000271432378272
-5.45430741943e-05
-0.000265080528497
-5.78492944747e-05
-0.000258443377561
-6.12061459225e-05
-0.000251512041635
-6.46333653058e-05
-0.00024427364981
-6.8147193341e-05
-0.000236712211473
-7.17584486607e-05
-0.000228809898403
-7.54708090106e-05
-0.000220548658186
-7.92792825809e-05
-0.000211912795956
-8.3168220505e-05
-0.000202891023604
-8.71117745929e-05
-0.000193479478795
-9.10728567008e-05
-0.000183684121401
-9.50051358775e-05
-0.000173522329565
-9.8855620657e-05
-0.0001630261801
-0.000102564866011
-0.000152240929503
-0.000106076866761
-0.000141227053848
-0.000109336288462
-0.000130062067271
-0.000112294682244
-0.000118828261637
-0.000114933498284
-0.000107631563871
-0.000117217300955
-9.65786525413e-05
-0.000119176894994
-8.5779462597e-05
-0.000120851676957
-7.53460826228e-05
-0.000122304581121
-6.53937559034e-05
-0.000123644321004
-5.60166309367e-05
-0.000125033024453
-4.72896775816e-05
-0.000126649196487
-3.92665626076e-05
-0.000128715466615
-3.19572075403e-05
-0.000131505240398
-2.5332537116e-05
-0.000135298699323
-1.92251045418e-05
-0.000140394348249
-1.34890722247e-05
-0.000146739689593
-7.4433529143e-06
-0.000153970342173
-0.000155515670686
-2.87397683561e-05
0.000197068027207
-5.59860305215e-05
0.000216892976359
-8.0822025795e-05
0.000227627244054
-0.000103119944114
0.000233571618549
-0.000123016011185
0.000234867478214
-0.000140753308218
0.000232253660636
-0.000156618140181
0.000226455387392
-0.00017089567452
0.000218256906451
-0.00018384365263
0.000208368835891
-0.00019568065257
0.000197398494089
-0.000206581305876
0.000185832946703
-0.000216678577469
0.000174042309646
-0.00022606997364
0.000162294736525
-0.00023482537737
0.000150775877546
-0.00024299457863
0.000139608008282
-0.000250613427658
0.000128866246379
-0.000257708281153
0.000118591211693
-0.000264298908137
0.000108798511079
-0.000270400246235
9.94857891255e-05
-0.00027602342469
9.0638049156e-05
-0.00028117639251
8.22317649888e-05
-0.000285864380044
7.42381155676e-05
-0.000290090323096
6.66255383463e-05
-0.000293855304919
5.93617182241e-05
-0.000297159025781
5.24150887409e-05
-0.000300000286093
4.5755910657e-05
-0.000302377460005
3.93569834688e-05
-0.000304288935265
3.31940580639e-05
-0.000305733491493
2.72460356625e-05
-0.000306710631549
2.14950119898e-05
-0.000307220908552
1.59260386242e-05
-0.000307265998858
1.05261620862e-05
-0.000306847467121
5.28347681077e-06
-0.000305964958572
1.90673554552e-07
-0.000304632006841
-4.73862420618e-06
-0.000302862778852
-9.50602566848e-06
-0.000300661806615
-1.41311513699e-05
-0.000298039596778
-1.86150404676e-05
-0.000295009193764
-2.29616495814e-05
-0.000291585392429
-2.71759081212e-05
-0.000287784250921
-3.12639004129e-05
-0.000283622718754
-3.52331344493e-05
-0.000279118255802
-3.90928963098e-05
-0.000274288381308
-4.28546292413e-05
-0.000269150115892
-4.65322946018e-05
-0.00026371929836
-5.01426589171e-05
-0.000258009780671
-5.37054343658e-05
-0.000252032536283
-5.72431802857e-05
-0.000245794753822
-6.07808702974e-05
-0.000239299001226
-6.43450615558e-05
-0.000232542619909
-6.79625425563e-05
-0.000225517552753
-7.16584486122e-05
-0.000218210535541
-7.54542274744e-05
-0.000210604053918
-7.93649479035e-05
-0.000202677909947
-8.33969712465e-05
-0.000194410596333
-8.75466149461e-05
-0.000185783294836
-9.17955412574e-05
-0.000176781585639
-9.61135034427e-05
-0.000167399737176
-0.000100454725208
-0.000157643949603
-0.000104760944092
-0.000147532971189
-0.000108966620171
-0.000137104628152
-0.000112993231044
-0.000126411558088
-0.000116769959576
-0.000115523979199
-0.000120223891005