/*--------------------------------*- C++ -*----------------------------------*\
| =========                 |                                                 |
| \\      /  F ield         | OpenFOAM: The Open Source CFD Toolbox           |
|  \\    /   O peration     | Version:  v1806                                 |
|   \\  /    A nd           | Web:      www.OpenFOAM.com                      |
|    \\/     M anipulation  |                                                 |
\*---------------------------------------------------------------------------*/
FoamFile
{
    version     2.0;
    format      ascii;
    class       surfaceScalarField;
    location    "300";
    object      phia;
}
// * * * * * * * * * * * * * * * * * * * * * * * * * * * * * * * * * * * * * //

dimensions      [0 3 -1 0 0 0 0];
oriented        oriented;


internalField   nonuniform List<scalar> 
12640
(
-0.00133344280798
0.00133332391141
-0.00209384649644
0.000760262266938
-0.00335848725634
0.00126455555469
-0.00448224195152
0.00112369742511
-0.00536125390759
0.000878977955948
-0.00604342267784
0.000682178106004
-0.00654027381294
0.000496893027996
-0.00693458466693
0.000394379227258
-0.00725514033473
0.000320647245068
-0.00751528239748
0.000260256987257
-0.00772537317763
0.000210224339365
-0.00789425677141
0.000169038392642
-0.00802916603926
0.00013508183916
-0.00813594209998
0.00010697137175
-0.00821938007231
8.36539458302e-05
-0.00828345403364
6.43165535192e-05
-0.00833148247948
4.82961359743e-05
-0.00836622083171
3.50370029626e-05
-0.00838996032429
2.40676190212e-05
-0.00840458745842
1.49899976259e-05
-0.0084116624944
7.471043782e-06
-0.00841246286391
1.2340224568e-06
-0.00840804419602
-3.94901028404e-06
-0.0083992676685
-8.26712964453e-06
-0.00838684464999
-1.18754349645e-05
-0.00837135190104
-1.49040042895e-05
-0.008353264356
-1.74590463413e-05
-0.00833296290084
-1.96310817267e-05
-0.00831075921508
-2.14927456026e-05
-0.00828689900661
-2.31074129525e-05
-0.00826158781342
-2.45177879171e-05
-0.00823500247521
-2.57505398855e-05
-0.00820740047482
-2.67266918271e-05
-0.00817927638752
-2.72074966961e-05
-0.00815175059246
-2.65677984209e-05
-0.00812443765201
-2.63133011082e-05
-0.00808609076853
-3.73055743008e-05
-0.00802879026794
-5.62175913291e-05
-0.00795400136433
-7.36643038534e-05
-0.00786593757777
-8.68993114483e-05
-0.00776834821187
-9.63854430288e-05
-0.00766268990107
-0.000104417472746
-0.00754970188468
-0.000111711198621
-0.00742971309157
-0.000118679132657
-0.00730289012815
-0.0001254814187
-0.00716939296936
-0.000132126794151
-0.00702948645207
-0.00013850762349
-0.00688362864638
-0.000144433338037
-0.00673253894104
-0.000149639007448
-0.00657727179896
-0.000153793869817
-0.00641927716034
-0.000156497627438
-0.00626047061942
-0.000157291542388
-0.00610326525485
-0.000155671868819
-0.00595059810405
-0.000151124155988
-0.00580587737414
-0.000143169659887
-0.00567289974277
-0.000131430548917
-0.00555565269433
-0.000115707655148
-0.0054580756571
-9.60584288473e-05
-0.00538371023599
-7.2872208822e-05
-0.00533534263723
-4.69107122446e-05
-0.00531460788008
-1.93169868328e-05
-0.00532167948727
8.44410236035e-06
-0.00535504299375
3.46920602994e-05
-0.00541146156375
5.77019471131e-05
-0.00548611673712
7.58988080604e-05
-0.00557296901784
8.8057199209e-05
-0.00566523769339
9.3441767309e-05
-0.00575594384582
9.18477232621e-05
-0.00583834288538
8.35143304872e-05
-0.00590610681324
6.8857002182e-05
-0.00595295231904
4.79205392776e-05
-0.00597201275613
2.01499025737e-05
-0.0059540589299
-1.68666170523e-05
-0.00588714007307
-6.57156216863e-05
-0.00575078708822
-0.000135183723432
-0.0055157827615
-0.000233569195255
-0.00511943670937
-0.000394893099626
-0.00442554170528
-0.00069224362042
-0.00268282664966
-0.00173873131874
-0.00268136739607
-0.0016615342036
0.00299461224505
-0.0029719626916
0.00207065032458
-0.00391414830675
0.00220678596414
-0.00483047693308
0.00204007666205
-0.00567634153824
0.00172489615499
-0.00645923652142
0.00146513010191
-0.00723968116641
0.00127740191448
-0.00798333335497
0.00113809979926
-0.00868032443844
0.00101771330848
-0.00932570169104
0.00090571307855
-0.00991718090208
0.000801787613823
-0.0104549091918
0.000706855067827
-0.0109408448038
0.000621111288415
-0.0113780402969
0.00054426771524
-0.0117700699823
0.00047579229424
-0.0121206493216
0.000415015832198
-0.0124334218915
0.000361199867637
-0.0127118353539
0.000313597551632
-0.0129590922134
0.000271486258195
-0.0131781182272
0.000234198027418
-0.0133715732292
0.000201125827429
-0.0135418510637
0.000171735605452
-0.0136911108865
0.000145554924363
-0.013821282329
0.000122175566249
-0.0139340997483
0.000101235838799
-0.0140311031386
8.24230862767e-05
-0.0141136698372
6.5455883935e-05
-0.0141830100004
5.00893069128e-05
-0.0142401945443
3.60980759425e-05
-0.0142861482855
2.3286104842e-05
-0.0143216699689
1.14710370144e-05
-0.0143474255293
5.0704480728e-07
-0.0143638626417
-9.7585268732e-06
-0.0143712108778
-1.92908280799e-05
-0.0143697707768
-2.74083976537e-05
-0.0143672461291
-2.81993727624e-05
-0.0143838201756
-2.00607604959e-05
-0.0144115483232
-2.77809184462e-05
-0.0144308072405
-5.36662265469e-05
-0.0144356178508
-8.13143413433e-05
-0.0144236965382
-0.000107503900679
-0.0143930632816
-0.000134216415041
-0.0143419078691
-0.000162007018435
-0.0142683569791
-0.00019134370042
-0.0141701329754
-0.000222797683959
-0.0140444438822
-0.000256886540282
-0.0138879632796
-0.000294041440253
-0.0136968174631
-0.000334616329307
-0.0134666009597
-0.000378879555366
-0.0131924333387
-0.000426976499618
-0.0128690760521
-0.000478862452942
-0.0124911499582
-0.000534226003636
-0.0120534471925
-0.00059238383098
-0.011551404393
-0.000652190389282
-0.0109816769792
-0.000711932661153
-0.0103428800861
-0.000769292883711
-0.00963634172225
-0.000821336372846
-0.00886689716708
-0.000864637436237
-0.00804346667636
-0.00089547270401
-0.00717941208412
-0.000910187863346
-0.00629238203121
-0.000905609662673
-0.00540369264754
-0.000879560248035
-0.00453706559214
-0.000831286299645
-0.00371692907749
-0.000761829636254
-0.00296632313583
-0.000674128105972
-0.0023048143221
-0.000572903139816
-0.00174660654002
-0.000464231244154
-0.00129934473143
-0.000354897425788
-0.000963652002437
-0.00025166559947
-0.000733684884207
-0.000160602101674
-0.000598488989098
-8.67553643527e-05
-0.000543516437377
-3.42836441468e-05
-0.000552905571416
-6.88260375405e-06
-0.000608451182633
-9.53818784863e-06
-0.000691004932931
-5.18501734894e-05
-0.000776036505056
-0.000147782032521
-0.000812759433592
-0.000357155118709
-0.000728840438549
-0.000774684667769
-0.000286875850228
-0.00217934068984
-0.00296671164736
-0.00396251565619
0.00695753990072
-0.00402773329963
0.00213611046726
-0.00346351015545
0.00164273903354
-0.0033839851979
0.00196070078032
-0.00361709615013
0.00195813696295
-0.00402015316775
0.00186830297355
-0.00450726863088
0.00176462146564
-0.00500258083432
0.00163350397898
-0.00546437963711
0.00147959302861
-0.00587641324918
0.00131781648426
-0.00623421105328
0.00115964545698
-0.00653867315701
0.00101136721928
-0.00679341687427
0.000875897125649
-0.00700327393704
0.000754158592526
-0.00717336158599
0.000645908361557
-0.00730860522606
0.000550281831657
-0.00741353426048
0.000466148771879
-0.00749222645414
0.000392305989283
-0.00754830530418
0.000327581747076
-0.00758497200439
0.000270880073864
-0.0076050360688
0.000221208302783
-0.00761095782175
0.000177676634732
-0.00760487705975
0.000139498962557
-0.00758864952735
0.00010597576394
-0.00756386654853
7.64884585868e-05
-0.00753188342104
5.04805534821e-05
-0.00749383100114
2.74541551295e-05
-0.00745063809975
6.95411183017e-06
-0.00740303715162
-1.14330649908e-05
-0.00735158478659
-2.80873572026e-05
-0.007296662288
-4.33583546115e-05
-0.00723851301413
-5.75373552436e-05
-0.0071772342236
-7.09150114668e-05
-0.00711271049819
-8.36771476545e-05
-0.00704267578749
-9.72844684055e-05
-0.0069542525174
-0.000116446984022
-0.00684875643844
-0.00012536031075
-0.0067477200542
-0.000128604480376
-0.006657503852
-0.000143650524923
-0.0065779358398
-0.000160635718275
-0.00650830432292
-0.000176872216906
-0.00644894736698
-0.000193297953714
-0.00640016811426
-0.000210497823859
-0.00636251507725
-0.000228699483084
-0.00633686337992
-0.000248143441905
-0.0063243080951
-0.000269131357419
-0.00632602778408
-0.000292008085074
-0.00634313974194
-0.00031719167429
-0.00637650175409
-0.000345208952683
-0.00642644991007
-0.000376727816004
-0.00649245713176
-0.0004125683538
-0.00657272054113
-0.00045369233182
-0.00666370224074
-0.000501156665155
-0.0067596649437
-0.000556007675589
-0.00685230028642
-0.000619112741321
-0.00693054036708
-0.000690900661588
-0.00698071863656
-0.000771048555833
-0.0069871685947
-0.000858113219385
-0.00693339235551
-0.000949218641109
-0.00680374087506
-0.00103984176684
-0.00658553343468
-0.00112385850377
-0.00627128725382
-0.00119387252343
-0.0058607346572
-0.00124193337203
-0.00536212239856
-0.00126054811844
-0.00479245709126
-0.00124391306749
-0.00417637222367
-0.001189103492
-0.00354371430882
-0.00109700182575
-0.00292604491151
-0.000972660230112
-0.00235277168526
-0.000825013545984
-0.0018475927351
-0.000665823909409
-0.00142590968028
-0.00050844520785
-0.00109393852914
-0.000366211031472
-0.000848753452259
-0.000251974936898
-0.000679269697672
-0.000178825446102
-0.000567320135319
-0.000163560917067
-0.000487082171928
-0.000227596927119
-0.000398350304045
-0.000445438982404
-0.000260866500032
-0.000911821636155
1.61407108577e-05
-0.00245471827941
-0.00295051764437
-0.00240958931185
0.00936758049883
-0.0015275220083
0.00125433671026
-0.00166421406691
0.00177967024179
-0.00224752557867
0.00254421263265
-0.00296619771875
0.00267698087972
-0.0037002846567
0.00260253781815
-0.00437876895403
0.00244323034969
-0.00497138122953
0.00222621961007
-0.0054775857253
0.00198588001428
-0.00590862634152
0.00174892067313
-0.00627722753393
0.00152829119589
-0.00659466133931
0.00132882828623
-0.00687035090573
0.00115159583356
-0.00711193404565
0.000995734655147
-0.00732546776926
0.000859417407442
-0.00751570522857
0.000740479310773
-0.0076863852403
0.000636771682507
-0.00784046916761
0.000546318427407
-0.00798033358506
0.000467358089256
-0.00810790427227
0.000398349251304
-0.0082247640424
0.000337950632847
-0.00833222040592
0.000285003195603
-0.00843136621664
0.000238499933523
-0.0085231129157
0.000197566576006
-0.00860822799995
0.000161433878271
-0.00868735117717
0.000129424644956
-0.00876102088741
0.00010093263551
-0.00882968134762
7.54157807556e-05
-0.00889370496464
5.23816323107e-05
-0.00895338780102
3.13812573793e-05
-0.00900897736232
1.20097241076e-05
-0.00906059916557
-6.13896310399e-06
-0.00910835598191
-2.33849274824e-05
-0.00915201853152
-4.02386867577e-05
-0.00919340230868
-5.61254371451e-05
-0.00923960419705
-7.04658705044e-05
-0.00926730745426
-9.78769459444e-05
-0.00927302162256
-0.000123106082353
-0.00926315311152
-0.00015373432844
-0.00923557239925
-0.000188429017146
-0.00918778689456
-0.000224871054456
-0.00911840073891
-0.000262896820692
-0.00902619260121
-0.000302921334194
-0.00890996310763
-0.000345146635367
-0.00876870106731
-0.000389628731988
-0.0086016983352
-0.000436363946189
-0.00840867128133
-0.000485275073174
-0.00818993206503
-0.000536183766497
-0.00794660500995
-0.000588805141255
-0.00768085988897
-0.000642763198214
-0.00739611970703
-0.000697622060895
-0.00709720282123
-0.000752952398862
-0.00679031031602
-0.000808421413635
-0.00648280324348
-0.000863922819693
-0.00618266040091
-0.000919694778102
-0.00589762052344
-0.000976416679843
-0.00563399124373
-0.00103518178549
-0.00539531751745
-0.00109732284986
-0.00518109770219
-0.00116399385864
-0.00498595409274
-0.00123556291495
-0.00479954981995
-0.00131084844683
-0.00460759730244
-0.00138642035124
-0.00439396067587
-0.00145616030584
-0.00414370291791
-0.0015113915371
-0.00384647111321
-0.00154171079057
-0.00349949329724
-0.00153662705603
-0.00310930204473
-0.00148770421371
-0.00269154306506
-0.00139089402905
-0.00226860370084
-0.00124838157752
-0.00186560655008
-0.00106920108476
-0.00150514696945
-0.000869231140461
-0.00120371593008
-0.000667914115165
-0.000966766308453
-0.000489123902761
-0.00079006700159
-0.000355645825147
-0.0006583028543
-0.000295320028504
-0.00054721490638
-0.000338618960652
-0.000428184070105
-0.000564318650288
-0.000267959619853
-0.00107147177814
-2.1940552573e-05
-0.00270097483413
-0.00297223439859
-4.67323846569e-05
0.00941483312402
-0.000116991508918
0.00132491608207
-0.00131239692334
0.00297532191393
-0.00239837019164
0.00363039168064
-0.00326782661344
0.00354661089754
-0.00396793224069
0.00330279051698
-0.0045173951188
0.00299281697939
-0.00494474642928
0.00265367351522
-0.00528281852598
0.00232403543686
-0.00555740264889
0.00202357010028
-0.00578606286567
0.00175699969638
-0.00598045620001
0.00152325293885
-0.00614827024414
0.00131942464786
-0.00629450617141
0.00114196786311
-0.00642239232136
0.000987283650269
-0.00653404005465
0.000852088333836
-0.00663088518897
0.000733559806334
-0.00671397663398
0.000629332510198
-0.00678415265883
0.000537437277755
-0.00684215019226
0.000456228171265
-0.00688866024505
0.000384321658346
-0.00692435944402
0.000320540567102
-0.00694991550642
0.000263873295597
-0.00696598967058
0.000213434838558
-0.00697322446269
0.000168442074395
-0.00697223713433
0.000128187827504
-0.00696360181133
9.20279457453e-05
-0.00694784114239
5.93638533346e-05
-0.00692540623067
2.96370919336e-05
-0.00689667051084
2.31594240054e-06
-0.00686190170594
-2.31044871607e-05
-0.00682128432719
-4.71186186098e-05
-0.00677482488489
-7.02188174418e-05
-0.00672248318965
-9.29687963565e-05
-0.00666280845456
-0.000116198380735
-0.00659552749455
-0.000138157840172
-0.0065365883905
-0.00015723471342
-0.00648222789753
-0.000177895396825
-0.00643577298856
-0.000200625847356
-0.00639814282266
-0.000226505805645
-0.00636851945465
-0.000254949230495
-0.00634616732575
-0.000285713806642
-0.00633040228266
-0.00031916028065
-0.00632026784245
-0.000355765722205
-0.00631441021477
-0.000395981971268
-0.00631100010366
-0.000440282341608
-0.00630762872741
-0.000489169201231
-0.00630121629528
-0.000543134965283
-0.0062879723178
-0.000602607232576
-0.00626343605955
-0.000667877603424
-0.00622264153962
-0.000739018993327
-0.00616042968067
-0.000815789674202
-0.00607194253168
-0.000897560965148
-0.00595325788109
-0.000983282639455
-0.00580211167976
-0.00107154144756
-0.00561853362419
-0.0011607130037
-0.00540522581814
-0.00124922611643
-0.00516743777303
-0.00133585569883
-0.00491222404767
-0.00141995941523
-0.00464705786783
-0.00150147723341
-0.00437806553186
-0.00158058321286
-0.00410831021508
-0.00165690233528
-0.00383675271423
-0.00172842666536
-0.00355842023243
-0.00179040605352
-0.00326608434135
-0.0018346997674
-0.00295321910488
-0.00185010959434
-0.00261750286705
-0.00182399835378
-0.00226365476921
-0.00174527827261
-0.00190433236498
-0.00160819764724
-0.00155869443234
-0.00141529275527
-0.00124731056739
-0.00118103239572
-0.000987443543273
-0.000928147232689
-0.000786832104279
-0.000690037314497
-0.000640753498255
-0.000501950746105
-0.000530538233395
-0.000405658996371
-0.00042781678873
-0.000441403508878
-0.000307720069165
-0.000684391149579
-0.000134555525505
-0.0012450171288
5.58860298378e-05
-0.00289115690309
-0.00291675662755
0.000362570517693
0.0090526921147
-0.000354659265282
0.00204243680376
-0.00189399713578
0.00451489214812
-0.00292745300412
0.00466403548413
-0.00362629804118
0.00424561498033
-0.00412665277583
0.00380328055003
-0.00448538171391
0.00335166213006
-0.00475166279098
0.00292005442455
-0.0049633105323
0.00253576906247
-0.00514326892003
0.00220360155691
-0.00530422320083
0.00191801507889
-0.00545299288818
0.00167207168371
-0.00559295889538
0.00145942710801
-0.00572549171532
0.00127452376306
-0.00585089261323
0.00111269269631
-0.00596898416031
0.000970172121277
-0.00607945251663
0.000844002325727
-0.00618202935255
0.000731864594704
-0.00627658024563
0.000631922036531
-0.00636313188566
0.000542691844686
-0.00644186916033
0.000462946625788
-0.00651310970013
0.00039164458297
-0.00657727501265
0.000327875527733
-0.00663485423829
0.00027082523569
-0.00668637509798
0.000219746311605
-0.00673237205328
0.000173941861279
-0.00677336511602
0.00013275006417
-0.00680983660927
9.55385344729e-05
-0.00684221908169
6.16955447539e-05
-0.00687088196704
3.06304880237e-05
-0.00689612554481
1.76553884609e-06
-0.00691818732732
-2.54522008335e-05
-0.00693725632101
-5.1567882236e-05
-0.00695365797729
-7.70046341145e-05
-0.00696809521888
-0.000102220770069
-0.0069752278003
-0.000131503189043
-0.00697013319775
-0.000162824327219
-0.00695242010452
-0.000196118298434
-0.00692129200309
-0.000232279737659
-0.00687672723419
-0.000271610216192
-0.00681837452996
-0.000313856036232
-0.00674596764073
-0.000358687682229
-0.00665965961757
-0.000406048460524
-0.00656001278679
-0.000456005249302
-0.00644798264732
-0.000508617490711
-0.00632493195342
-0.000563951643955
-0.00619260615424
-0.000622126737633
-0.0060530463021
-0.000683341292924
-0.00590842924025
-0.0007478847459
-0.00576083970305
-0.0008161437084
-0.00561196765112
-0.000888581716735
-0.00546277460299
-0.000965689331645
-0.00531317324813
-0.00104788109685
-0.0051618314434
-0.00113535606305
-0.00500618595693
-0.00122792569877
-0.00484277265581
-0.0013248711349
-0.00466786410905
-0.00142487831399
-0.00447833147052
-0.00152612801627
-0.00427246992538
-0.0016265489324
-0.00405048767695
-0.001724172123
-0.00381434574399
-0.00181741552316
-0.00356687979435
-0.00190503338829
-0.0033104052807
-0.00198553593139
-0.00304540534856
-0.00205600833039
-0.00277005697491
-0.00211061638728
-0.0024811820655
-0.00213951651767
-0.00217675795376
-0.00212892007713
-0.00185932358697
-0.00206317840399
-0.00153821478285
-0.00192974412522
-0.00123001933619
-0.00172390379876
-0.000955456742145
-0.00145597750428
-0.000732290830385
-0.00115165251376
-0.000565896331588
-0.000856719847763
-0.00044650470754
-0.000621525077331
-0.000348775716945
-0.000503562659242
-0.000236200092062
-0.00055404880609
-8.58410955286e-05
-0.000834961498941
0.000141303566922
-0.00147213378285
0.00023848173037
-0.00298910649464
-0.00267847955195
0.000374681524347
0.00867831861972
-0.00082854472505
0.00324591182754
-0.00239444568738
0.00608098993614
-0.00319361142808
0.00546336858092
-0.00366915721793
0.00472130228811
-0.00397753238253
0.0041117800726
-0.00418493086432
0.00355917146358
-0.00434200696137
0.00307723164202
-0.00447880263066
0.00267265781359
-0.00460947743453
0.00233436293823
-0.00473976051346
0.00204837826367
-0.00487123221032
0.00180361692038
-0.00500326125466
0.0015915220709
-0.00513414912068
0.0014054686378
-0.00526186246412
0.00124045247921
-0.00538444582015
0.00109278926503
-0.00550022677904
0.000959802551604
-0.00560789971235
0.000839539767572
-0.00570653702555
0.000730542832807
-0.00579556243588
0.000631679395159
-0.0058747030178
0.000542026722868
-0.00594393563963
0.000460791733747
-0.00600342987959
0.00038725869864
-0.00605349636064
0.000320753129751
-0.00609453674713
0.000260620742078
-0.00612700256666
0.000206212949748
-0.00615135634199
0.000156881247149
-0.00616804183146
0.000111972685676
-0.00617745620505
7.08315345593e-05
-0.00617992939609
3.27978022242e-05
-0.00617570807545
-2.7869041508e-06
-0.00616493233316
-3.65845968943e-05
-0.0061476328267
-6.92473736771e-05
-0.00612357723429
-0.000101464890488
-0.00609241829326
-0.000133806848413
-0.0060588422253
-0.000165528110967
-0.00602441147743
-0.000197721036973
-0.00598922900528
-0.000231784144916
-0.00595368713294
-0.00026832038377
-0.00591781846201
-0.000307992745854
-0.00588109681786
-0.000351104864806
-0.00584253229187
-0.000397792031585
-0.00580087355984
-0.00044825852598
-0.00575466422243
-0.000502776626908
-0.00570225180538
-0.000561602340111
-0.00564184113993
-0.000624944162351
-0.0055715940589
-0.000692965463114
-0.00548975966243
-0.000765775699649
-0.00539483800141
-0.000843415444093
-0.00528575454347
-0.000925843034994
-0.00516201993161
-0.00101293945486
-0.00502381388388
-0.00110452261585
-0.00487195351847
-0.00120037249775
-0.00470770182877
-0.00130023854069
-0.00453244274716
-0.00140381380095
-0.00434729110451
-0.00151064539169
-0.00415278649247
-0.00161999616299
-0.00394882028618
-0.00173069331256
-0.00373488300255
-0.00184106732088
-0.0035105804666
-0.00194903343731
-0.0032761545836
-0.00205237459638
-0.00303270070387
-0.00214899209689
-0.00278178384784
-0.00223692720785
-0.00252457079432
-0.00231366567769
-0.00226094333685
-0.00237465747913
-0.00198950683294
-0.00241133839815
-0.001709081767
-0.00240970713642
-0.00142163656797
-0.00235096069895
-0.0011361687555
-0.00221553171772
-0.000869735907277
-0.00199063080705
-0.000640990053117
-0.00168498169742
-0.000466411148685
-0.0013264349982
-0.000348879922953
-0.000974352620349
-0.000260755671288
-0.000709733922412
-0.000148142324612
-0.000616152766716
3.55292155943e-05
-0.000737818957546
0.00029746127114
-0.00109690666437
0.000603796294198
-0.00177896666166
0.000468805342548
-0.00285435259244
-0.00221000457592
0.000294208990405
0.00838439985908
-0.00129552549137
0.00483585350443
-0.00267706167652
0.00746269901343
-0.00317858713374
0.00596503634822
-0.0034638402128
0.00500668340294
-0.00364134377334
0.00428940021741
-0.00376589746386
0.00368383565964
-0.00387686357334
0.00318830417202
-0.00399169337148
0.00278759185048
-0.00411596850537
0.00245874045925
-0.00425005783633
0.00218256835332
-0.00439205809945
0.0019457154105
-0.00453889817676
0.00173845685109
-0.00468715851543
0.00155381840312
-0.00483359232994
0.00138696854451
-0.00497538770526
0.00123465743308
-0.00511028130019
0.00109475700837
-0.00523657977109
0.000965884717625
-0.00535312428638
0.000847116774618
-0.0054592279147
0.000737793170852
-0.00555460389788
0.000637391076895
-0.00563929158453
0.000545444371331
-0.005713585314
0.000461491968308
-0.00577796598379
0.000385047118334
-0.0058330395217
0.000315580052415
-0.00587948032159
0.000252512075974
-0.00591798370568
0.000195214840026
-0.00594922407186
0.000143016104722
-0.00597382288751
9.52060878884e-05
-0.00599232179043
5.10467327464e-05
-0.00600516388867
9.7796212449e-06
-0.00601268484068
-2.93631813618e-05
-0.00601510811251
-6.71477715258e-05
-0.00601257617498
-0.000104343074442
-0.00600495149789
-0.000141801048652
-0.00599003790203
-0.000180830422553
-0.00596647057925
-0.000221693011358
-0.00593373398492
-0.000264939765427
-0.00589133167084
-0.000311154919834
-0.00583907670732
-0.000360691573701
-0.00577691459876
-0.000413720998172
-0.00570491029806
-0.000470259347956
-0.00562334326371
-0.00053029617547
-0.0055327310711
-0.000593866417211
-0.00543376119575
-0.000661055377441
-0.00532718486744
-0.000732008972835
-0.0052136895027
-0.000806952911067
-0.00509376454954
-0.000886196183456
-0.00496757894931
-0.000970097872525
-0.00483491252329
-0.00105900725254
-0.00469516476422
-0.00115318340919
-0.00454746283335
-0.00125271837143
-0.00439084609895
-0.00135747789687
-0.0042244854565
-0.00146708116609
-0.00404785476816
-0.00158091708394
-0.0038607874039
-0.00169817338615
-0.00366338283688
-0.00181784685146
-0.00345583089491
-0.00193867361986
-0.00323826113123
-0.00205904519976
-0.0030108002296
-0.00217687926248
-0.00277379425553
-0.00228974090967
-0.00252815953576
-0.00239496071508
-0.00227538956165
-0.00249000591775
-0.00201719900573
-0.00257213951007
-0.00175480159887
-0.00263731543379
-0.00148846805575
-0.00267791431574
-0.00121898064574
-0.00267941690124
-0.000950937814126
-0.00261921249951
-0.000693646513187
-0.00247300871259
-0.000466881805965
-0.00221754197074
-0.00029788547168
-0.00185406342352
-0.00019204823031
-0.00143226584386
-0.000116568402601
-0.00104978309706
-3.93414197691e-07
-0.000825784254386
0.000221738079963
-0.000838259533646
0.000556707668971
-0.00107271146615
0.000931704507898
-0.00147201007766
0.00111794480621
-0.00196521399348
0.000564771232322
-0.00230167438747
-0.0016453898563
0.000169049260252
0.00821551535066
-0.00166026990689
0.00666532948519
-0.00271930199378
0.00852186557259
-0.00295682887424
0.00620269093943
-0.00312798211032
0.00517795436719
-0.00324000593283
0.00440153928723
-0.00333451062134
0.00377845404959
-0.00343735378799
0.00329126159286
-0.00355602406345
0.00290637739463
-0.00369109268556
0.00259392548474
-0.00384001765546
0.00233161024432
-0.00399908560488
0.00210489983621
-0.00416389327476
0.00190337908539
-0.00433008181159
0.00172011780132
-0.00449374007458
0.00155073181833
-0.00465158142804
0.00139259552692
-0.00480101803972
0.00124427949349
-0.00494014666939
0.00110508561232
-0.00506768028388
0.000974706393222
-0.00518286586211
0.000853015807909
-0.00528540176855
0.000739942862761
-0.00537535832405
0.000635393436814
-0.00545309910736
0.000539200492392
-0.00551920433304
0.000451093915378
-0.0055743966022
0.000370687361693
-0.00561947367274
0.000297477063979
-0.00565524728841
0.000230849874711
-0.00568249329782
0.000170097094708
-0.00570190969279
0.00011443241982
-0.00571408421824
6.30066145515e-05
-0.00571946844944
1.49262331625e-05
-0.00571835428835
-3.07373082018e-05
-0.00571087302554
-7.49101101938e-05
-0.00569699559856
-0.000118523108027
-0.00567687174768
-0.000162246362844
-0.00565132638513
-0.000206711782926
-0.00562033113059
-0.000253035605403
-0.0055835244283
-0.000302102884278
-0.00554046756957
-0.000354576008265
-0.00549055813639
-0.000410970903783
-0.00543305903147
-0.00047159481512
-0.005367133548
-0.000536562783294
-0.00529194624247
-0.000605864328009
-0.00520676776999
-0.000679427352981
-0.00511104962307
-0.000757157434553
-0.00500447288776
-0.000838969593675
-0.00488698129564
-0.000924828082513
-0.00475878211997
-0.00101477683665
-0.00462030825307
-0.0011089506211
-0.00447213459775
-0.0012075551633
-0.00431486655215
-0.00131082029068
-0.00414902180146
-0.00141892448085
-0.00397494416914
-0.00153190815066
-0.00379277846398
-0.00164958895084
-0.00360251230722
-0.00177151284748
-0.00340406606404
-0.00189693513582
-0.00319735213612
-0.00202485977724
-0.00298230427018
-0.00215400228051
-0.00275879740932
-0.00228281222636
-0.00252671400439
-0.00240920106456
-0.0022859871434
-0.00253068305122
-0.00203700473068
-0.00264413651216
-0.00178075291492
-0.00274642869731
-0.00151881181284
-0.00283423056434
-0.0012528528299
-0.00290340722762
-0.00098489730584
-0.00294598619911
-0.000716865247511
-0.00294755204963
-0.000457219483459
-0.00287893558388
-0.000226608539993
-0.00270364793601
-5.1666258505e-05
-0.00239244620244
4.93288981437e-05
-0.00195493427186
0.00011597258114
-0.00149873814954
0.000241365296356
-0.00117497302495
0.000506803906866
-0.00109108937518
0.000916202295529
-0.0012475260124
0.00136972267999
-0.00152621273757
0.00166344656045
-0.00176564001311
0.0014899746247
-0.00179189394765
0.000636380634721
-0.00144820495008
-0.00100910731174
3.47707255617e-05
0.00818089984405
-0.00189353112467
0.00859375468172
-0.00257512549714
0.0092035777931
-0.00263681888025
0.00626449316593
-0.00276442901719
0.00530567723543
-0.00285243242802
0.00448965658479
-0.00294453474322
0.00387067420667
-0.00305550734839
0.003402355424
-0.00318735061832
0.00303834499541
-0.00333850694428
0.00274520855184
-0.0035048429319
0.00249807429669
-0.00368169699951
0.00228188202655
-0.00386381802803
0.00208562662203
-0.00404630266772
0.00190272542414
-0.0042248809248
0.00172942725425
-0.00439603606048
0.00156385951605
-0.00455706455947
0.00140540582016
-0.00470602257009
0.00125412756774
-0.00484162370099
0.00111037482879
-0.00496315104079
0.00097459108585
-0.00507038288527
0.000847200964205
-0.00516352377135
0.000728536866329
-0.00524312821592
0.000618782436601
-0.00531001543016
0.000517932636346
-0.00536518026291
0.000425777535533
-0.00540970729492
0.00034190346495
-0.00544469252033
0.000265709249685
-0.00547117916521
0.000196433791257
-0.00549010728944
0.000133187721599
-0.00550227341976
7.49785885929e-05
-0.00550829807522
2.07368579588e-05
-0.00550860446887
-3.06635948471e-05
-0.00550340729756
-8.03576045958e-05
-0.00549269348396
-0.000129502777592
-0.00547605513696
-0.000179165081644
-0.00545248437247
-0.000230571805037
-0.00542117407605
-0.000284639689983
-0.00538139971668
-0.000342174258387
-0.00533246205676
-0.000403811943424
-0.00527375499016
-0.000469976777245
-0.00520477715418
-0.000540870658245
-0.005125156676
-0.000616480324404
-0.00503468713765
-0.000696628988857
-0.00493334993458
-0.000781057767641
-0.00482129103595
-0.000869506500931
-0.00469876458411
-0.000961783058603
-0.00456606813155
-0.00105780701953
-0.00442349842488
-0.00115762417113
-0.0042713346638
-0.00126138565509
-0.00410985170481
-0.00136930246613
-0.00393934492175
-0.0014815830176
-0.0037601515729
-0.00159836442982
-0.0035726454605
-0.0017196502334
-0.00337721092269
-0.00184524746481
-0.00317419392247
-0.00197474055769
-0.00296388208527
-0.00210744258166
-0.00274644622223
-0.00224247485702
-0.00252198612453
-0.00237862282176
-0.00229037843793
-0.00251456081355
-0.00205143376252
-0.00264826547255
-0.00180477903786
-0.00277743689541
-0.00155043232935
-0.00289856127862
-0.00128870087667
-0.00300821866712
-0.00102092017741
-0.00310205300444
-0.000748201487115
-0.00317615121628
-0.000473646838616
-0.00322054932694
-0.000202683131666
-0.00321849561335
4.87455093326e-05
-0.00313029454192
0.000243300713644
-0.00289807564609
0.000358310146169
-0.00250726303707
0.000438301503284
-0.00203470080642
0.00058838876826
-0.00164859993034
0.00091032938867
-0.00149674667809
0.00141273884286
-0.00159337970431
0.00195815140424
-0.00179290976059
0.00230613881476
-0.00187413765381
0.00222910548297
-0.00168859402816
0.00165935266459
-0.00122208263428
0.000794186566521
-0.00058314830887
-0.00021506515787
-9.29959748024e-05
0.00827397688635
-0.0019962452089
0.0104970897795
-0.00231294785103
0.00952036716128
-0.00230044981296
0.00625209433169
-0.00242687678991
0.00543220767409
-0.00250784361258
0.00457073594933
-0.00260744381164
0.00397039280695
-0.00273010203714
0.003525137537
-0.00287582702702
0.00318419801946
-0.00304210624812
0.0029116184705
-0.00322355421527
0.00267965429393
-0.00341496877865
0.00247342812713
-0.00361037139047
0.00228115849964
-0.00380453923123
0.00209701798456