/*--------------------------------*- C++ -*----------------------------------*\
| =========                 |                                                 |
| \\      /  F ield         | OpenFOAM: The Open Source CFD Toolbox           |
|  \\    /   O peration     | Version:  v1806                                 |
|   \\  /    A nd           | Web:      www.OpenFOAM.com                      |
|    \\/     M anipulation  |                                                 |
\*---------------------------------------------------------------------------*/
FoamFile
{
    version     2.0;
    format      ascii;
    class       surfaceScalarField;
    location    "300";
    object      phia;
}
// * * * * * * * * * * * * * * * * * * * * * * * * * * * * * * * * * * * * * //

dimensions      [0 3 -1 0 0 0 0];
oriented        oriented;


internalField   nonuniform List<scalar> 
12640
(
-0.00216551619392
0.00216641443522
-0.00482083926877
0.00265639633937
-0.00719459158274
0.00237490185961
-0.00887378417698
0.00168019969186
-0.00972875226172
0.000856134308158
-0.0106374890236
0.000909841083359
-0.0114234289592
0.000786764903515
-0.0120676911925
0.000644938447931
-0.0126046609197
0.000537579137363
-0.0130458298389
0.000441752917889
-0.0134074388797
0.000362173642332
-0.0137042271048
0.000297358155323
-0.0139473997686
0.000243749697041
-0.0141456380885
0.000198842820742
-0.0143061269389
0.00016112081943
-0.0144349099884
0.000129458310871
-0.0145370639079
0.000102871020275
-0.0146167808178
8.04879740694e-05
-0.0146775216649
6.15636494015e-05
-0.0147221059619
4.54682024249e-05
-0.0147528432934
3.16798712208e-05
-0.0147715996313
1.97648001333e-05
-0.0147799007344
9.37308730645e-06
-0.0147789780429
2.18467458794e-07
-0.0147698473932
-7.92251122484e-06
-0.0147533373345
-1.5230627423e-05
-0.0147301475814
-2.18409608705e-05
-0.0147008651531
-2.78609905002e-05
-0.0146660085838
-3.33639779185e-05
-0.0146260430863
-3.83992694215e-05
-0.0145814319338
-4.29720339855e-05
-0.0145327713882
-4.69466876796e-05
-0.0144810844314
-4.98975593717e-05
-0.0144283841346
-5.08343437855e-05
-0.0143743100355
-5.21321064823e-05
-0.0142986434712
-7.36526723453e-05
-0.0141859717584
-0.000110586626788
-0.0140424211802
-0.000141401503417
-0.0138826927875
-0.000157518193138
-0.0137125688251
-0.000167861652403
-0.0135361774782
-0.000174079734496
-0.0133560651283
-0.000177763261054
-0.0131738181367
-0.000179864436135
-0.0129904835762
-0.000180932276545
-0.0128067964781
-0.000181269833956
-0.0126233479809
-0.000181030980286
-0.0124406466506
-0.000180288644664
-0.0122591832203
-0.000179070395148
-0.0120794397834
-0.000177375075544
-0.0119019380306
-0.000175172102568
-0.0117272412645
-0.000172410369797
-0.011555997657
-0.000169012924881
-0.0113889358284
-0.000164890503536
-0.0112268968997
-0.00015993721357
-0.0110708157371
-0.00015405142419
-0.010921729663
-0.000147135980431
-0.0107807333991
-0.000139126623944
-0.0106489526071
-0.000129996611793
-0.0105274644648
-0.000119788511229
-0.0104172331087
-0.000108618804666
-0.0103189996477
-9.67053176349e-05
-0.0102331916183
-8.43647197613e-05
-0.0101598010654
-7.2027774008e-05
-0.0100982930597
-6.022460841e-05
-0.010047497267
-4.958639979e-05
-0.0100055398122
-4.0820096166e-05
-0.00996976102553
-3.47081032017e-05
-0.00993668300335
-3.20719404363e-05
-0.00990192424523
-3.3812458622e-05
-0.00986025521549
-4.07781803928e-05
-0.00980533351801
-5.40816867122e-05
-0.00973038443321
-7.41455598277e-05
-0.0096266254384
-0.000102992884893
-0.00948909035199
-0.000136768373615
-0.00930169363729
-0.000186667515884
-0.00907675766501
-0.00022417112866
-0.00869426167119
-0.000381749512892
-0.00818481672107
-0.000508727974036
-0.00556165395485
-0.0026213822261
-0.00556092721479
-0.000806372802401
0.00297401057192
-0.00302439203425
0.00487605617566
-0.00445198017324
0.00380394711127
-0.0063760002055
0.00360499489739
-0.0084912156376
0.00297184635847
-0.0101084464417
0.00252742954625
-0.0115272771843
0.00220590709799
-0.0128503269483
0.00196827057962
-0.0140783457156
0.00176587267941
-0.0152192670109
0.00158294140929
-0.0162724159106
0.0014155880172
-0.0172378036651
0.00126301519249
-0.0181181522786
0.00112437369971
-0.018917955435
0.000998938195647
-0.0196425814973
0.000886054804456
-0.0202976953865
0.000784908810182
-0.0208889321324
0.000694468527507
-0.0214216501208
0.000613604875918
-0.0219008381633
0.000541181451371
-0.022331030814
0.000476136060539
-0.0227163303137
0.000417490648712
-0.0230603864568
0.000364383318838
-0.0233664589841
0.000316048209747
-0.0236374146905
0.000271832300936
-0.0238757993457
0.000231163843363
-0.0240838342473
0.000193564995902
-0.0242634867927
0.000158618620327
-0.0244164610689
0.000125982156813
-0.0245442689172
9.53614856763e-05
-0.0246482075341
6.65211367687e-05
-0.024729438897
3.9292093838e-05
-0.0247887865311
1.34998920675e-05
-0.0248268480901
-1.06831876869e-05
-0.024844062558
-3.24008037871e-05
-0.0248532493006
-4.16734427748e-05
-0.0248962472772
-2.93218798147e-05
-0.0249537670977
-5.16890486661e-05
-0.0249839571464
-0.000109784912444
-0.0249823613912
-0.000157650675998
-0.0249464166516
-0.000202306167273
-0.02487315485
-0.000245813738942
-0.0247612963382
-0.000288071263411
-0.0246100942592
-0.000329499911416
-0.0244187845109
-0.000370668799425
-0.024186502166
-0.0004119755255
-0.0239123189189
-0.000453647586632
-0.0235952465666
-0.000495803792538
-0.0232342754264
-0.000538510330004
-0.0228283647742
-0.000581776122841
-0.0223764983165
-0.000625569202567
-0.0218776835376
-0.000669788048875
-0.0213310354247
-0.000714275767418
-0.020735798922
-0.000758782489382
-0.0200914720396
-0.000802979667454
-0.0193978662267
-0.00084641945215
-0.0186552741744
-0.000888554973204
-0.0178645694356
-0.000928708057172
-0.0170274033472
-0.000966105235476
-0.0161463175408
-0.000999867011476
-0.0152249238405
-0.00102906904217
-0.0142679721738
-0.00105276160732
-0.0132814437245
-0.00107005708368
-0.0122725044243
-0.0010801748498
-0.0112494489518
-0.00108254070184
-0.0102214977872
-0.00107683637954
-0.00919857936893
-0.00106308289859
-0.00819099187655
-0.00104167253566
-0.00720907475929
-0.0010134046252
-0.00626281582632
-0.00097951463027
-0.00536148626265
-0.000941581795881
-0.00451326885096
-0.000901791974595
-0.00372491450526
-0.000862011702141
-0.00300136192579
-0.000826055376495
-0.00234545770009
-0.000792192401096
-0.00175623887377
-0.000775375977656
-0.00123181843411
-0.000748118783479
-0.000746453287742
-0.000866596384752
-0.000316108629991
-0.000938432218813
0.00038121406833
-0.00331816393155
-0.00517916438115
-0.00370800527724
0.00668309223067
-0.00482314282109
0.00599223527125
-0.00509160659502
0.00407297091075
-0.00530790481003
0.00382166926282
-0.00580651405936
0.00347072886056
-0.00645032350486
0.00317144377498
-0.00721709659998
0.00297283785402
-0.0080276164608
0.00277892182465
-0.00881601697574
0.00255438792815
-0.00954458501801
0.00231161237929
-0.010196819391
0.00206791679586
-0.0107681272768
0.00183440874208
-0.0112606442725
0.00161697284022
-0.0116799365342
0.00141830788739
-0.0120329226059
0.0012391208469
-0.0123267630622
0.00107882944888
-0.0125683003754
0.000936094512186
-0.0127638041303
0.000809202193925
-0.0129188518827
0.000696336442844
-0.0130383209845
0.000595721373127
-0.0131264097802
0.000505713712054
-0.0131867063044
0.000424826601718
-0.0132222429688
0.000351753407294
-0.0132355770056
0.000285350433259
-0.0132288431854
0.000224639075563
-0.0132038275272
0.000168776629484
-0.0131620090664
0.000117055140886
-0.0131046231387
6.88717829165e-05
-0.0130326896722
2.37336148563e-05
-0.012947071062
-1.87694270101e-05
-0.0128484939171
-5.89253405113e-05
-0.012737658639
-9.6951858135e-05
-0.0126149865073
-0.000132939570306
-0.0124783393088
-0.000168608133312
-0.0123078155159
-0.000211729952679
-0.012098867567
-0.000237786972967
-0.0119034865366
-0.000246569673231
-0.01173567283
-0.000277090117831
-0.0115878367605
-0.000304968760394
-0.0114610254999
-0.000328597236656
-0.0113556123622
-0.000350705735006
-0.0112711353646
-0.000372031377903
-0.0112073968667
-0.00039272943085
-0.0111644486165
-0.000413118432258
-0.011142322879
-0.000433618742349
-0.0111408577209
-0.000454645661096
-0.0111596080525
-0.000476609285425
-0.0111977673854
-0.000499925867858
-0.011254110685
-0.000525035521159
-0.0113269174342
-0.00055238610844
-0.01141392087
-0.000582438846982
-0.0115122304804
-0.000615641549301
-0.0116182885364
-0.000652430982994
-0.0117277992101
-0.000693195387157
-0.0118357060497
-0.000738268810626
-0.0119361532523
-0.000787881329572
-0.0120225177617
-0.000842144061159
-0.0120874467106
-0.000900990921048
-0.0121229906549
-0.000964160800537
-0.0121207629707
-0.00103114490187
-0.0120722066912
-0.00110118466573
-0.0119688873217
-0.00117324961736
-0.0118028717353
-0.00124607717037
-0.0115670958296
-0.00131820517622
-0.0112557591961
-0.00138806969146
-0.0108646424041
-0.00145409345859
-0.0103913791668
-0.00151483229946
-0.00983559923633
-0.00156907397268
-0.00919897054367
-0.00161603039751
-0.00848511353622
-0.00165531339179
-0.00769934779028
-0.00168742220442
-0.00684836836439
-0.00171283136065
-0.00593916133918
-0.00173508524667
-0.00497868608527
-0.00175244409719
-0.00397042088395
-0.00178341363179
-0.00292445315633
-0.00179380661501
-0.00184898623293
-0.00194180691186
-0.000867338628958
-0.00191990438814
-3.68572383173e-06
-0.00418120117765
-0.00518283779338
-0.00764332553613
0.0143278826608
-0.00531457273965
0.00366410398538
-0.00423593258891
0.00299468880856
-0.00431488128619
0.00390087201089
-0.00499837001363
0.00415439984108
-0.0059607905221
0.00413398750512
-0.00698642783334
0.00399855711525
-0.00796093519309
0.00375348307817
-0.00884183900473
0.00343532538703
-0.00962136752389
0.00309115830073
-0.0103055700675
0.00275211945468
-0.0109052552067
0.0024340788647
-0.0114323468072
0.00214403109276
-0.0118981234715
0.00188403655104
-0.012312425242
0.00165335624073
-0.0126834607068
0.00144978533397
-0.0130179382288
0.00127047504865
-0.0133212704929
0.00111242624191
-0.0135978071604
0.000972748955043
-0.0138510251647
0.000848806125408
-0.0140837170241
0.000738258071984
-0.0142981250628
0.000639080202923
-0.0144960745802
0.000549536047582
-0.0146790561998
0.000468160371508
-0.0148483159372
0.000393716527738
-0.0150049012206
0.000325176857393
-0.0151497211235
0.000261681119912
-0.015283569569
0.000202525345071
-0.0154071575778
0.000147119274876
-0.0155211298127
9.50006152446e-05
-0.0156259963322
4.57319902715e-05
-0.0157222206999
-9.36449446512e-07
-0.0158098093439
-4.5566698273e-05
-0.0158918306161
-8.68067017039e-05
-0.0159811326269
-0.000122660464838
-0.0160366054692
-0.000182557052215
-0.0160480851575
-0.000235350747547
-0.0160314302524
-0.000294021449834
-0.0159815069774
-0.000355189229405
-0.0158964319582
-0.000413989401071
-0.0157770920014
-0.00047038534575
-0.0156244087347
-0.000525077346168
-0.0154392729757
-0.000578250451644
-0.0152228541804
-0.000629946773448
-0.0149766387517
-0.000680264304491
-0.0147024091436
-0.00072932875989
-0.0144022416239
-0.000777246886392
-0.0140785432542
-0.000824114580339
-0.0137340609428
-0.000870019017195
-0.0133719049423
-0.00091505857476
-0.0129955271145
-0.000959337005663
-0.0126087140582
-0.00100298390593
-0.0122155206283
-0.00104615007978
-0.0118202098451
-0.00108903389216
-0.011427115805
-0.00113187968086
-0.0110405023269
-0.00117500693523
-0.0106643346859
-0.0012188065874
-0.0103020476728
-0.00126376214454
-0.00995624015911
-0.00131043024006
-0.0096283945106
-0.00135943691689
-0.00931857113779
-0.00141142833489
-0.00902518792792
-0.00146703355877
-0.0087448479635
-0.00152678870956
-0.00847231884217
-0.00159108259401
-0.00820061877702
-0.00166008588658
-0.00792128442298
-0.00173371694216
-0.00762474978886
-0.0018116210352
-0.00730088063938
-0.00189316675899
-0.00693957324441
-0.00197752371707
-0.00653146857171
-0.00206356934548
-0.00606862642207
-0.00215037233359
-0.00554537314501
-0.00223615299067
-0.0049584747107
-0.0023219977546
-0.00430837263196
-0.00240252767517
-0.00359603097959
-0.00249567265757
-0.00283231311279
-0.00255744410833
-0.00201791720739
-0.0027560895565
-0.00123641305756
-0.00270117506027
-0.00036638741789
-0.00505131035317
-0.00554911946777
-0.00211445371928
0.016442996897
-0.00113036233525
0.0026803612282
-0.0021789298293
0.0040435111843
-0.0035706761987
0.00529280854908
-0.00489263456111
0.00547649687925
-0.00609195316045
0.00533340490413
-0.00711321139355
0.0050198834739
-0.00794994013682
0.00459025877938
-0.00863154719789
0.00411696346077
-0.00919161733784
0.00365124546058
-0.009657266457
0.00321777207214
-0.0100492103835
0.00282601020705
-0.010383091974
0.00247788387667
-0.0106704757135
0.00217137151398
-0.0109197367425
0.00190254949343
-0.0111368932258
0.00166685110917
-0.0113262812435
0.00145975163239
-0.0114910658025
0.0012770746631
-0.0116335912676
0.00111511677365
-0.0117556354345
0.000970667095861
-0.0118585719997
0.000840989834427
-0.0119434933801
0.000723771053048
-0.0120112798955
0.000617070812425
-0.0120626593294
0.000519262608531
-0.0120982323659
0.000428991829918
-0.0121185036099
0.000345125432312
-0.0121238878127
0.000266722848146
-0.0121147256588
0.000192996204913
-0.0120912849795
0.000123292105661
-0.0120537523114
5.7056626654e-05
-0.0120022818002
-6.17008898418e-06
-0.0119368531385
-6.68224038793e-05
-0.0118575673298
-0.000125332488663
-0.0117621014916
-0.000182781261764
-0.0116481101763
-0.000237190101384
-0.0115491875677
-0.000282049265511
-0.0114584358149
-0.000326701299923
-0.0113818938993
-0.000371194335222
-0.0113206092942
-0.000417135499022
-0.0112720983213
-0.000463193223849
-0.0112344024617
-0.000508804159283
-0.0112058158644
-0.00055441490814
-0.011184342594
-0.000600501902098
-0.0111676974987
-0.000647392618328
-0.0111533843193
-0.000695400262097
-0.0111386989518
-0.000744852041183
-0.0111207382404
-0.000796060379981
-0.0110964210168
-0.000849290811219
-0.0110625481964
-0.000904757136007
-0.0110158643133
-0.000962604284096
-0.0109531564111
-0.00102290376351
-0.0108713529191
-0.00108563309026
-0.010767661766
-0.00115067482155
-0.0106397024074
-0.00121780477909
-0.0104856666681
-0.00128670660483
-0.0103044534958
-0.00135698178822
-0.0100958028703
-0.00142819180158
-0.00986036488217
-0.00149989966008
-0.00959972087792
-0.00157174174308
-0.00931629399098
-0.00164349264153
-0.00901317140477
-0.00171514447724
-0.00869379752882
-0.0017869602608
-0.00836158542244
-0.00185951618671
-0.0080194439265
-0.00193369740764
-0.00766929853809
-0.0020106653767
-0.00731163715456
-0.00209176944224
-0.0069451643453
-0.00217844450206
-0.00656661350155
-0.00227202514914
-0.00617077956663
-0.00237362431526
-0.00575084275506
-0.00248372908871
-0.00529900517524
-0.00260239070646
-0.00480774007902
-0.00272755109951
-0.0042711147197
-0.00285871740431
-0.00368788335622
-0.0029857980959
-0.00306057351726
-0.0031230039048
-0.00240494254098
-0.00321304143505
-0.0017212734417
-0.00343973217645
-0.00107964433956
-0.0033428962246
-0.000282733955968
-0.00584806960167
-0.0058319677726
-0.000145764794175
0.016589308612
-0.000357625787428
0.00289250033087
-0.00245571848229
0.00614179284873
-0.00420930717389
0.0070465430195
-0.00554214484581
0.00680944968555
-0.00657267728006
0.00636402784851
-0.00734847004173
0.0057957499798
-0.00793033220546
0.00517218284135
-0.0083803424774
0.00456702778401
-0.00874354206184
0.00401449193581
-0.00904887069192
0.00352313914394
-0.00931474959933
0.003091917299
-0.00955285951334
0.0027160080326
-0.00977042184074
0.0023889323835
-0.00997176786764
0.00210387421888
-0.0101594284626
0.00185446983901
-0.0103348582596
0.0016351150334
-0.0104988868104
0.00144101268296
-0.0106520015619
0.00126811315532
-0.0107945100851
0.00111303073538
-0.0109266415179
0.000972946379453
-0.0110485956449
0.000845522336308
-0.0111605773981
0.000728818417345
-0.0112628064804
0.000621228819966
-0.0113555309425
0.00052142139307
-0.0114390255066
0.0004282959753
-0.0115136000284
0.000340940806712
-0.0115795954126
0.000258605399529
-0.0116373888632
0.00018066595195
-0.0116873916848
0.000106608964643
-0.0117300427895
3.59955495246e-05
-0.011765865716
-3.15174537653e-05
-0.0117955698086
-9.61831552082e-05
-0.0118210152479
-0.000157928801854
-0.0118348298332
-0.000224008299597
-0.0118261808487
-0.000291365537679
-0.0117960105515
-0.000357574497249
-0.0117441766426
-0.000423765125022
-0.0116722784153
-0.000489803582156
-0.0115814170785
-0.000554855564633
-0.0114728352631
-0.000618215033928
-0.0113482934282
-0.000679811841075
-0.0112098126705
-0.000739858792238
-0.0110595048423
-0.00079859545572
-0.0108995174056
-0.000856295069395
-0.0107319757456
-0.00091331126008
-0.0105588878144
-0.000970068549345
-0.0103820552358
-0.0010270442745
-0.0102029803694
-0.00108474558513
-0.0100227930994
-0.00114369611398
-0.00984217621287
-0.00120440833304
-0.00966131903718
-0.00126735983176
-0.00947988137549
-0.00133295663528
-0.00929699968924
-0.00140150457817
-0.00911131824118
-0.00147317374135
-0.00892107538196
-0.00154797798233
-0.00872422425746
-0.00162575867959
-0.00851860751589
-0.00170619535716
-0.00830215270868
-0.00178883475745
-0.00807308720654
-0.00187315697
-0.00783012202064
-0.0019586663506
-0.0075725840196
-0.0020450144531
-0.00730044275325
-0.00213213129439
-0.00701421494575
-0.00222035828553
-0.00671472146457
-0.00231055003353
-0.00640271981396
-0.00240412185775
-0.00607842664233
-0.00250304819188
-0.00574103006734
-0.00260969345864
-0.00538823420539
-0.00272665496468
-0.00501599205265
-0.0028561698021
-0.00461850655231
-0.00300003965111
-0.00418890734777
-0.00315728034068
-0.00372021244579
-0.00332750578006
-0.00320858179903
-0.00349750190117
-0.00265317321759
-0.00367844532913
-0.002068115646
-0.00379813287402
-0.00145408443215
-0.0040537776909
-0.00089892361775
-0.00389800569801
-0.000179766031635
-0.00656744219411
-0.00601176800377
0.000333786353744
0.0162556448171
-0.00090681635419
0.00413323258843
-0.00337267187664
0.00860777377974
-0.00493222651195
0.00860620868538
-0.00595996484599
0.00783728649939
-0.00666908376995
0.00707323631115
-0.00715197812528
0.00627872747406
-0.00749385889191
0.0055141442225
-0.00775719968826
0.00483044789489
-0.0079783698187
0.00423574036545
-0.00817717242999
0.00372201740588
-0.00836411877241
0.00327893372084
-0.00854428118108
0.00289623210354
-0.00871954535917
0.00256424572495
-0.00889004344675
0.00227440652344
-0.00905503459366
0.00201947626435
-0.00921341228648
0.00179348760978
-0.00936399036452
0.00159156173524
-0.00950564993153
0.00140971931493
-0.00963741120854
0.0012447112028
-0.00975845356479
0.00109388085169
-0.00986811663453
0.000955047841831
-0.00996588354042
0.000826419005642
-0.0100513660117
0.000706513923265
-0.0101242824583
0.000594110736746
-0.0101844438083
0.000488198341235
-0.0102317345857
0.000387942126767
-0.0102661021289
0.000292650767745
-0.01028754095
0.000201750978034
-0.010296084093
0.00011476417386
-0.0102917798723
3.12702338739e-05
-0.0102746553798
-4.90985165547e-05
-0.010244475465
-0.000126855045649
-0.0102005841746
-0.00020235028724
-0.0101522973726
-0.000272861440042
-0.0101033473464
-0.000340913259849
-0.0100539612005
-0.000407588620302
-0.0100051102752
-0.000473272402692
-0.00995695814898
-0.000538638741697
-0.00990873498802
-0.00060378498986
-0.00985908031459
-0.000668597116636
-0.0098064836163
-0.000733152382397
-0.00974940745472
-0.000797692840594
-0.00968630140745
-0.000862467867169
-0.00961567016872
-0.000927698615302
-0.009536151008
-0.000993602721383
-0.00944657673435
-0.00106041261196
-0.00934601098754
-0.00112837140906
-0.00923377484812
-0.00119773239252
-0.00910945058584
-0.00126875486651
-0.00897287284611
-0.00134170238597
-0.00882409411349
-0.00141683195609
-0.00866333745354
-0.00149438218544
-0.00849092883682
-0.00157455372899
-0.00830722457782
-0.00165748908383
-0.00811253344846
-0.00174324787832
-0.00790705267648
-0.00183178534894
-0.00769082442921
-0.00192293480471
-0.00746373153571
-0.00201640413736
-0.00722553640264
-0.00211179300144
-0.00697596762191
-0.0022086408299
-0.00671483709383
-0.00230651532979
-0.00644216499639
-0.00240513891431
-0.00615826770349
-0.00250455665506
-0.00586376704202
-0.00260531772263
-0.00555948951986
-0.00270863402938
-0.00524619877147
-0.00281654141808
-0.00492424382676
-0.00293182329884
-0.0045930851598
-0.00305796068141
-0.00425087818649
-0.00319850211904
-0.00389413067155
-0.0033568895828
-0.00351788497362
-0.00353361055927
-0.00311606951556
-0.00372939000667
-0.00268402624612
-0.00392959667119
-0.00221804647358
-0.00414447613925
-0.00172847307254
-0.00428773243041
-0.00121198905512
-0.0045702876224
-0.000768697859135
-0.00434143302874
-0.000135540969844
-0.0072006368864
-0.00614741437123
0.000364414454148
0.0158913752971
-0.00156640976038
0.00606416016409
-0.00399546420307
0.0110369148211
-0.00518634682229
0.00979717818381
-0.00589785004195
0.00854887719003
-0.00634577713103
0.00752125185672
-0.00663018532606
0.00656322709533
-0.00683424650041
0.00571830030083
-0.00700594690377
0.00500224759237
-0.00716802604496
0.00439792208454
-0.00733081601966
0.00388491135172
-0.00749827573335
0.00344649589601
-0.00767078339928
0.00306883704707
-0.00784684799956
0.00274039914015
-0.00802417708278
0.00245181200538
-0.00820027453421
0.00219563508706
-0.00837275378515
0.00196600974492
-0.00853948865398
0.00175831934982
-0.00869867499395
0.00156890547608
-0.00884883653101
0.00139484885335
-0.00898880542099
0.00123379998818
-0.00911768741523
0.00108385410943
-0.00923482732936
0.0009434555873
-0.00933977325309
0.000811329270678
-0.009432248286
0.000686426709938
-0.00951212378109
0.000567886856836
-0.00957940100847
0.000455003395884
-0.00963419263336
0.000347197844814
-0.00967671458737
0.000243998679909
-0.00970726739672
0.00014501311269
-0.00972625406569
4.9922603544e-05
-0.00973413472565
-4.15821112746e-05
-0.00973165520683
-0.000129730461262
-0.00971939728061
-0.000215036140002
-0.00969369561906
-0.000299018425746
-0.00965436793978
-0.000380719958388
-0.00960195304329
-0.000460503723928
-0.00953723121015
-0.000538514266336
-0.00946152945724
-0.00061487681038
-0.0093762085876
-0.00068965670406
-0.00928251714504
-0.000762849689447
-0.00918167067192
-0.000834568213968
-0.00907483855822
-0.000905097964742
-0.00896304719266
-0.000974833692956
-0.00884709301368
-0.00104422419942
-0.00872749845167
-0.00111376344663
-0.00860448594463
-0.00118398194268
-0.00847797277316
-0.00125543000887
-0.00834758335488
-0.00132865238329
-0.00821268602303
-0.00140416606056
-0.0080724457834
-0.00148243708322
-0.00792589138746
-0.00156385979479
-0.00777198731627
-0.00164873678737
-0.00760970467428
-0.00173726264548
-0.00743808255892
-0.00182951209626
-0.00725627290993
-0.00192543201565
-0.00706356519034
-0.00202484077877
-0.00685938961968
-0.00212743066046
-0.00664330737805
-0.00223277953774
-0.00641499623931
-0.00234036988868
-0.00617425225307
-0.00244962396866
-0.00592101149904
-0.00255996838831
-0.00565540966651
-0.00267092768964
-0.0053778487591
-0.00278227832618
-0.00508905564271
-0.00289424816877
-0.00479010598913
-0.00300769638179
-0.0044822903929
-0.0031244499229
-0.00416694355472
-0.00324724335639
-0.00384506566295
-0.00337989886443
-0.00351698570422
-0.00352663056616
-0.00318197983159
-0.00369193771134
-0.00283826020646
-0.00387736606347
-0.00248313352439
-0.00408455208118
-0.00211477955269
-0.00429798926366
-0.00173105177419
-0.00452824370226
-0.001342057528
-0.00467676861606
-0.000940381730064
-0.00497201235188
-0.000629974050581
-0.00465186278275
-9.6735466925e-05
-0.00773406151782
-0.00624424622631
0.000268972393694
0.0156224110064
-0.00217236112558
0.00850552543669
-0.00430907229328
0.0131736843899
-0.00508510093529
0.0105732753107
-0.00553991174473
0.00900376592289
-0.00581073483715
0.00779216049793
-0.00598375835943
0.00673634277207
-0.00612499461321
0.005859635439
-0.00626389843574
0.0051412562776
-0.00641159678066
0.00454573015048
-0.00657180115185
0.00404522812221
-0.00674431806856
0.00361912478862
-0.00692674750945
0.00325137481585
-0.00711569701118
0.0029294494
-0.00730753971213
0.00264374483607
-0.00749881848935
0.00238698975057
-0.0076864385405
0.00215368921397
-0.00786774568717
0.00193966658648
-0.00804053529746
0.0017417145417
-0.00820302568661
0.00155733599896
-0.00835381111493
0.00138455893135
-0.00849181178955
0.00122180370628
-0.00861622344185
0.00106779158516
-0.00872647433194
0.000921479183486
-0.00882218674783
0.000782013159966
-0.00890314656972
0.000648695421785
-0.00896927749165
0.000520958083779
-0.0090206206647
0.000398339706612
-0.00905732006925
0.000280471695771
-0.00907960785049
0.000167049609443
-0.00908780475987
5.78435214192e-05
-0.00908230259776
-4.73844753863e-05
-0.00906363163834
-0.000148725907669
-0.00903267420102
-0.0002463415662
-0.00899218336469
-0.00033987519097
-0.00894294597143
-0.000430336681552
-0.00888565012526
-0.000518191304531
-0.00882076638277
-0.000603798637608
-0.00874857708387
-0.00068747437444
-0.00866922343227
-0.000769422437775
-0.00858272021863
-0.000849767364715
-0.0084890524594
-0.000928648975547
-0.00838826833208
-0.00100629213362
-0.00828050262814
-0.00108300293677
-0.00816596946476
-0.00115915296433
-0.00804494048555
-0.00123517710087
-0.00791771460034
-0.00131158028251
-0.00778457086406
-0.0013889316918
-0.00764571633541
-0.00146784921758
-0.00750123417038
-0.00154897335009
-0.00735104347611
-0.00163293473685
-0.00719487567052
-0.00172031555483
-0.0070322729073
-0.00181160763253
-0.00686261059572
-0.00190717292934
-0.00668514040589
-0.00200720940015
-0.006499051966
-0.00211172698943
-0.00630353793066
-0.00222054023156
-0.00609785819578
-0.00233327542019
-0.00588138660549
-0.00244939543179
-0.00565364156697
-0.00256823962015
-0.00541430403935
-0.00268906603681
-0.00516322486372
-0.00281113393675
-0.00490045553277
-0.00293376372091
-0.00462629383637
-0.00305649011291
-0.00434133024997
-0.00317924316209
-0.00404655748333
-0.00330248585941
-0.0037432516296
-0.00342775842007
-0.00343306569565
-0.00355742306591
-0.00311771964299
-0.00369523438766
-0.00279896890226
-0.00384536937954
-0.00247814845447
-0.0040127500198
-0.00215639888218
-0.00419911515682
-0.00183517641673
-0.00440578347775
-0.00151752996294
-0.00461566439631
-0.00120557411831
-0.00484023748625
-0.000911517594474
-0.00497087968167
-0.000629544314915
-0.00525402067811
-0.000453553591303
-0.00482798037216
-2.93728183452e-05
-0.00815839615995
-0.00627369843118
0.000123963863945
0.0154984682675
-0.00263338627505
0.0112629122602
-0.00431595851895
0.0148562966861
-0.00473194235889
0.0109893164782
-0.00502831975827
0.00930021243553
-0.00520564450814
0.0079695645583
-0.00533470586722
0.00686549198324
-0.00546138998249
0.00598641457067
-0.00560074031726
0.00528070783804
-0.00575727962636
0.00470237527783
-0.00593132632017
0.00421938293009
-0.00612052850449
0.00380843456992
-0.00632104782782
0.00345199769168
-0.0065285246436
0.00313702249319
-0.0067386706852
0.00285397628123
-0.00694757447994
0.00259596539096
-0.00715183702937
0.0023580071506
-0.00734860762865
0.00213647434107
-0.00753556424173
0.00192868807891
-0.00771086316769
0.0017326307009
-0.00787307847105
0.00154674771413
-0.00802113983347
0.00136981600163
-0.00815427661614
0.00120085635151
-0.0082719687874
0.0010390765841
-0.00837390639534
0.000883833459363
-0.00845995631354
0.000734605852907
-0.00853013580313
0.000590976544471
-0.00858459123912
0.000452612757353
-0.00862358516891
0.000319262828283
-0.00864747777497
0.000190719108684
-0.00865675187123
6.68759123778e-05
-0.0086519461563
-5.24500591612e-05
-0.00863389375917
-0.000167055698228
-0.00860268772283
-0.000277840575943
-0.00855816841434
-0.00038469446686
-0.00850107808485
-0.000487732594385
-0.00843225185117
-0.000587325306222
-0.00835265413228
-0.000683705431638
-0.00826333458375
-0.000777100867746
-0.00816532848299
-0.000867732440355
-0.00805957184979
-0.000955821631183
-0.00794687699077
-0.00104163430622
-0.00782793466029
-0.00112551499363
-0.00770331465192
-0.00120789274573
-0.00757345807925
-0.00128926646583
-0.00743867977345
-0.00137019883146
-0.00729917483079
-0.001451313737
-0.00715502655829
-0.00153329307362
-0.00700620851995
-0.00161686427955
-0.00685258195848
-0.00170278045742
-0.00669388960101
-0.00179179111135
-0.00652974783868
-0.00188460443333
-0.0063596438812
-0.00198184222361
-0.00618294002765
-0.00208399054365
-0.00599889217271
-0.00219135489076
-0.00580668731901
-0.00230401301109
-0.00560549456369
-0.00242179870967
-0.00539452904269
-0.00254429082231
-0.00517311639335
-0.00267084367805
-0.0049407400351
-0.00280063630148
-0.00469709044819
-0.00293272288862
-0.00444206624092
-0.00306615096772
-0.00417581319638
-0.00319999708099
-0.00389871667237
-0.00333355409172
-0.0036114133383
-0.0034665021141
-0.00331502093516
-0.00359882338987
-0.0030108695889
-0.0037318476712
-0.0027007744947
-0.00386745568715
-0.00238676350452
-0.00400918635978
-0.00207185199338
-0.00416023233461
-0.00175896102671
-0.00432560547739
-0.00145199064721
-0.00450606483376
-0.00115736165155
-0.0047004180699
-0.000883456688711
-0.00488958645448
-0.000639402742641
-0.00508434947843
-0.000431925601858
-0.00517839543447
-0.000294034660723
-0.00539199138974
-0.000230817772762
-0.00489127972141
0.0001248304812
-0.00851417819713
-0.00614900728706
-2.51193502472e-05
0.0155235951909
-0.0029295117644
0.0141673141028
-0.00409759024848
0.0160244123238
-0.00426461289541
0.0111563879214
-0.00449001102672
0.00952567279309
-0.00462707172748
0.00810669651547
-0.00474733010556
0.00698582868427
-0.00487978019858
0.00611894856493
-0.00503137110349
0.00543238699743
-0.00520387875047
0.00487497407129
-0.00539589016178
0.00441148635609
-0.00560373176094
0.00401636622193
-0.0058226396285
0.00367099063657
-0.00604763550725
0.00336209500284
-0.006274031682
0.0030804376859
-0.0064976783835
0.00281966289351
-0.00671505368166
0.00257541666652
-0.00692326380433
0.00234469999211
-0.00711999415105
0.0021254140497
-0.00730344005212
0.00191605116033
-0.00747223204829
0.00171549277579
-0.00762536625316
0.00152288144272
-0.00776214245113
0.00133754209599
-0.00788211206933
0.00115893441856
-0.00798503491973
0.000986623659405
-0.00807084412277
0.000820262439247
-0.00813961789085
0.000659578213566