/*--------------------------------*- C++ -*----------------------------------*\
| =========                 |                                                 |
| \\      /  F ield         | OpenFOAM: The Open Source CFD Toolbox           |
|  \\    /   O peration     | Version:  v1806                                 |
|   \\  /    A nd           | Web:      www.OpenFOAM.com                      |
|    \\/     M anipulation  |                                                 |
\*---------------------------------------------------------------------------*/
FoamFile
{
    version     2.0;
    format      ascii;
    class       volVectorField;
    location    "300";
    object      U;
}
// * * * * * * * * * * * * * * * * * * * * * * * * * * * * * * * * * * * * * //

dimensions      [0 1 -1 0 0 0 0];


internalField   nonuniform List<vector> 
6400
(
(0.00929086919725 0.0189838915119 0)
(0.0226275621977 0.0121806056889 0)
(0.0294416085177 0.00887888741095 0)
(0.0288878584674 0.007556556164 0)
(0.023430911175 0.000721557018111 0)
(-0.00401243675023 -0.0136066083209 0)
(-0.0327714326469 -0.0157243085346 0)
(-0.056168393316 -0.0147511263997 0)
(-0.0806633990705 -0.0141545425067 0)
(-0.104646639923 -0.0135559207936 0)
(-0.127872617873 -0.012884144148 0)
(-0.150108681295 -0.0121548052458 0)
(-0.171196327923 -0.0113932517355 0)
(-0.191037581108 -0.0106228011508 0)
(-0.209584201808 -0.00986199403993 0)
(-0.226826694178 -0.00912442574377 0)
(-0.24278436079 -0.00841930914538 0)
(-0.257496762445 -0.00775224345665 0)
(-0.271016702429 -0.00712599587952 0)
(-0.283404688468 -0.00654121334521 0)
(-0.294724729406 -0.00599703140462 0)
(-0.305041275114 -0.00549157014927 0)
(-0.314417094088 -0.00502232255526 0)
(-0.32291189154 -0.00458644653435 0)
(-0.330581492055 -0.00418097626612 0)
(-0.337477438483 -0.00380296779514 0)
(-0.343646884243 -0.00344959312058 0)
(-0.349132686304 -0.00311819440247 0)
(-0.353973619968 -0.00280630671589 0)
(-0.358204657853 -0.00251165574312 0)
(-0.361857274845 -0.00223213609948 0)
(-0.364959764633 -0.00196577697041 0)
(-0.367537539533 -0.00171068043146 0)
(-0.36961327038 -0.00146485468564 0)
(-0.371206731561 -0.00122587098658 0)
(-0.372334218885 -0.000990577261113 0)
(-0.373008007143 -0.000755535601374 0)
(-0.373238427205 -0.000518717239667 0)
(-0.373039838805 -0.000279544829784 0)
(-0.372407335261 -4.21944755152e-05 0)
(-0.371355074993 0.000189428887047 0)
(-0.369894866669 0.000414832134472 0)
(-0.368037942955 0.000634593491041 0)
(-0.365794053958 0.000849655598641 0)
(-0.363171191919 0.00106108275385 0)
(-0.360175494967 0.00126997437239 0)
(-0.35681122431 0.00147742953376 0)
(-0.35308078278 0.00168452379406 0)
(-0.348984771972 0.00189228738038 0)
(-0.344522094918 0.0021016787207 0)
(-0.339690113779 0.00231355496903 0)
(-0.334484870422 0.00252863888329 0)
(-0.328901374118 0.00274748685017 0)
(-0.322933954658 0.00297045947575 0)
(-0.316576672197 0.00319770124884 0)
(-0.309823766578 0.00342913190238 0)
(-0.302670119982 0.00366445685653 0)
(-0.29511169751 0.003903199412 0)
(-0.287145921999 0.00414476141522 0)
(-0.2787719327 0.0043885139538 0)
(-0.269990672354 0.004633922927 0)
(-0.260804744171 0.00488070937672 0)
(-0.251217981104 0.0051290466307 0)
(-0.241234672467 0.0053797914686 0)
(-0.230858396343 0.00563474960741 0)
(-0.220090409407 0.00589697045 0)
(-0.208927561138 0.00617107241185 0)
(-0.197359721807 0.00646358012986 0)
(-0.185366726178 0.00678325640361 0)
(-0.172914832189 0.00714138806157 0)
(-0.159952693977 0.0075519331902 0)
(-0.146407211509 0.00803146131152 0)
(-0.132180953708 0.00859846602632 0)
(-0.11715360831 0.00927065439591 0)
(-0.101182781426 0.0100580712672 0)
(-0.0840885885251 0.0109535429355 0)
(-0.0656611758691 0.0119285170334 0)
(-0.0459658761708 0.0128977338699 0)
(-0.0263774367364 0.0133920716745 0)
(-0.0105538319763 0.0112348553787 0)
(0.000555062360506 0.02847955712 0)
(0.0116702674463 0.0151139065196 0)
(0.0108360337158 0.00166853770501 0)
(-0.0195434314776 -0.0206004388324 0)
(-0.0380238793792 -0.028802519794 0)
(-0.059957458093 -0.0346053118578 0)
(-0.0834735822754 -0.03643827933 0)
(-0.10733352124 -0.0365121511194 0)
(-0.131727873202 -0.0360666963115 0)
(-0.155599962343 -0.0351390340769 0)
(-0.178600954245 -0.0338178287151 0)
(-0.200476526602 -0.0322066369341 0)
(-0.221071912491 -0.0304019495869 0)
(-0.240300421221 -0.0284862536232 0)
(-0.25812779445 -0.0265260002562 0)
(-0.274558897867 -0.0245721252436 0)
(-0.289626617263 -0.0226617121089 0)
(-0.303382729873 -0.0208201332973 0)
(-0.315890641689 -0.019063289714 0)
(-0.327219815932 -0.0173997271264 0)
(-0.337441664597 -0.0158325074118 0)
(-0.346626652856 -0.0143607818229 0)
(-0.35484236964 -0.0129810596058 0)
(-0.36215234083 -0.0116881938903 0)
(-0.368615394561 -0.0104761213744 0)
(-0.374285420204 -0.0093383975174 0)
(-0.379211400149 -0.00826856828412 0)
(-0.383437618024 -0.00726041334268 0)
(-0.387003973104 -0.00630808970605 0)
(-0.389946342848 -0.00540619766189 0)
(-0.39229695017 -0.00454979360088 0)
(-0.394084757091 -0.00373437173035 0)
(-0.395335896262 -0.00295577173577 0)
(-0.396074124921 -0.00220981054545 0)
(-0.396320794852 -0.00149159262693 0)
(-0.396093577104 -0.000795761625102 0)
(-0.395404080507 -0.000119573597695 0)
(-0.394277865752 0.000535206437725 0)
(-0.392741627536 0.00116833590845 0)
(-0.390828909404 0.00178255507133 0)
(-0.388552458245 0.00237809086525 0)
(-0.385922757241 0.00295661590589 0)
(-0.382947513396 0.00352037072955 0)
(-0.379632712537 0.00407183845758 0)
(-0.375982879937 0.00461360652057 0)
(-0.372001124236 0.00514830298212 0)
(-0.36768912137 0.00567855335212 0)
(-0.363047097892 0.00620693486739 0)
(-0.358073841135 0.00673591825883 0)
(-0.352766753136 0.00726779441972 0)
(-0.347121961357 0.00780458702195 0)
(-0.34113449548 0.00834795577934 0)
(-0.334798535768 0.00889909725709 0)
(-0.328107732461 0.00945865291095 0)
(-0.321055589284 0.0100266355039 0)
(-0.31363589539 0.0106023869037 0)
(-0.305843181741 0.011184580519 0)
(-0.297673168162 0.0117712815121 0)
(-0.289123159731 0.0123600760909 0)
(-0.280192343644 0.0129482790707 0)
(-0.27088193408 0.0135332253947 0)
(-0.261195109734 0.0141126481889 0)
(-0.251136690896 0.0146851419553 0)
(-0.24071250609 0.0152507065331 0)
(-0.229928406416 0.015811363132 0)
(-0.218788890537 0.0163718328136 0)
(-0.207295313572 0.0169402670097 0)
(-0.195443682272 0.017528988574 0)
(-0.183222057033 0.0181551946603 0)
(-0.17060754661 0.018841560599 0)
(-0.157562944495 0.0196164956819 0)
(-0.144033293327 0.0205138481764 0)
(-0.129943290725 0.0215713287951 0)
(-0.115197009819 0.0228248096715 0)
(-0.0996786134172 0.0242938778653 0)
(-0.0832472070118 0.0259592400646 0)
(-0.0657374824699 0.0277406222161 0)
(-0.0470904056999 0.0294123350495 0)
(-0.0280037544816 0.0301014320598 0)
(-0.0114025362632 0.0269043461216 0)
(-0.00710821692951 0.0278661859364 0)
(-0.013136624405 -0.00286994720001 0)
(-0.0334687357955 -0.0251297775817 -8.50576394863e-29)
(-0.0526219137706 -0.0393025692791 5.22261617954e-29)
(-0.072865998698 -0.049502497734 3.9717349025e-29)
(-0.0938099146294 -0.0566582502934 -3.23758330444e-29)
(-0.115289884733 -0.0598417322998 2.76586458728e-29)
(-0.137186105255 -0.0605054401723 -2.45906323106e-29)
(-0.159081431038 -0.0598020823357 0)
(-0.180336969545 -0.0581111127279 0)
(-0.200629775328 -0.0557148310097 0)
(-0.21974673816 -0.0528358223836 0)
(-0.237576123845 -0.0496552888234 0)
(-0.254073364674 -0.0463181240778 0)
(-0.269241336465 -0.0429364052715 0)
(-0.283115082055 -0.0395932834838 0)
(-0.295750213653 -0.0363473219681 0)
(-0.307214152078 -0.0332369692098 0)
(-0.31757970681 -0.0302848354047 0)
(-0.32692056113 -0.0275015364317 0)
(-0.335308260664 -0.024888975924 0)
(-0.342810344474 -0.0224430282599 0)
(-0.349489310946 -0.0201556485421 0)
(-0.355402171285 -0.0180164741039 0)
(-0.36060039529 -0.0160139981384 0)
(-0.36513011054 -0.0141363984975 0)
(-0.369032451685 -0.0123720975271 0)
(-0.372343990002 -0.010710116711 0)
(-0.375097193845 -0.00914027729701 0)
(-0.37732087209 -0.00765329126126 -7.03610011245e-29)
(-0.379040599466 -0.00624078441258 7.02997467326e-29)
(-0.380279112765 -0.00489527375895 0)
(-0.38105696988 -0.00361002423365 0)
(-0.381393316844 -0.00237855223712 0)
(-0.381305079207 -0.00119406665488 0)
(-0.380802503113 -5.12974022123e-05 0)
(-0.379900711248 0.00104723816386 0)
(-0.378638179515 0.00209846256847 0)
(-0.377009914356 0.00310865372258 0)
(-0.375026989299 0.00408461921643 0)
(-0.372697399695 0.00503237464743 0)
(-0.370029059316 0.00595621961639 0)
(-0.367028766061 0.00686002564619 0)
(-0.363702103376 0.00774760797954 0)
(-0.360053379568 0.00862283593238 0)
(-0.356085568919 0.00948964954483 0)
(-0.351800252386 0.0103520292911 0)
(-0.347197572947 0.011213932218 0)
(-0.342276222162 0.0120791954109 0)
(-0.337033474126 0.0129514103921 0)
(-0.3314652814 0.0138337711833 0)
(-0.325566445083 0.0147289057519 0)
(-0.319330866909 0.0156387011573 0)
(-0.312751885549 0.0165641399075 0)
(-0.305822691874 0.0175051647954 0)
(-0.29853680921 0.0184605954377 0)
(-0.290888614443 0.0194281176331 0)
(-0.282873865875 0.0204043690236 0)
(-0.274490194108 0.0213851383481 0)
(-0.265737505422 0.0223656943305 0)
(-0.256618242039 0.0233412504498 0)
(-0.247137443025 0.0243075688839 0)
(-0.237302551373 0.0252616955263 0)
(-0.227122918954 0.0262028153382 0)
(-0.216608971882 0.0271332056602 0)
(-0.205771011968 0.0280592586154 0)
(-0.194617621658 0.0289925633184 0)
(-0.183153680468 0.0299509612151 0)
(-0.171378067426 0.0309594454853 0)
(-0.159280961484 0.0320509741836 0)
(-0.146840831803 0.0332666539936 0)
(-0.13402142467 0.0346549574038 0)
(-0.120768751728 0.036269328233 0)
(-0.107008424095 0.0381608803989 0)
(-0.0926444998098 0.0403606988694 0)
(-0.0775590486324 0.042847148117 0)
(-0.0616013380202 0.0454931285892 0)
(-0.0446016183979 0.0479206793688 0)
(-0.0269085223707 0.0489009247466 0)
(-0.0104165795799 0.0451635242561 0)
(-0.0178000509856 0.0135803376355 0)
(-0.0338229710566 -0.0216386568758 0)
(-0.0530362001528 -0.0425379799018 0)
(-0.0729896601503 -0.0585282265438 0)
(-0.0931203055066 -0.0698054659946 0)
(-0.113180857916 -0.0772125092906 0)
(-0.133113348254 -0.080699046207 0)
(-0.152841327697 -0.0813340517257 0)
(-0.172071253252 -0.0800706813835 0)
(-0.190485653423 -0.0774615673313 0)
(-0.207895595952 -0.0739307631185 0)
(-0.224184394751 -0.069803112401 0)
(-0.239305590947 -0.0653319519396 0)
(-0.253260408197 -0.0607118383181 0)
(-0.266081754584 -0.0560876663895 0)
(-0.277821368858 -0.0515627120039 0)
(-0.288540513456 -0.0472062781309 0)
(-0.29830356661 -0.0430608587141 0)
(-0.307173899063 -0.0391485678031 0)
(-0.315211442442 -0.0354766432066 0)
(-0.32247143953 -0.0320419529609 0)
(-0.329003971339 -0.028834538947 0)
(-0.334853961614 -0.0258403017706 0)
(-0.340061452254 -0.0230429640553 0)
(-0.344662012666 -0.0204254553397 0)
(-0.348687203571 -0.0179708498413 0)
(-0.352165047477 -0.0156629679688 0)
(-0.355120482026 -0.0134867298687 0)
(-0.357575778229 -0.0114283309609 0)
(-0.359550900355 -0.00947530249186 0)
(-0.361063810097 -0.00761650241058 0)
(-0.362130825077 -0.00584201814349 0)
(-0.362767404848 -0.00414285065001 0)
(-0.362988898671 -0.00251041743117 0)
(-0.362807951693 -0.000936795824911 0)
(-0.362226312545 0.000582768616955 0)
(-0.361285209752 0.00204530201608 0)
(-0.359977836932 0.00345361569691 0)
(-0.358317387213 0.00481542426415 0)
(-0.356313368504 0.00613528635069 0)
(-0.353974466152 0.00741839606216 0)
(-0.351308518364 0.00866978734856 0)
(-0.348322335089 0.00989445911467 0)
(-0.345021613616 0.0110974805361 0)
(-0.341410848422 0.012284051879 0)
(-0.337493233189 0.0134595141245 8.38449451636e-29)
(-0.333270563753 0.0146293098989 -8.45743383419e-29)
(-0.328743156914 0.015798895924 0)
(-0.32390980241 0.0169736071527 0)
(-0.318767766334 0.0181584743689 0)
(-0.313312864062 0.0193580013151 0)
(-0.307539618881 0.0205759123062 0)
(-0.301441518334 0.0218148875945 0)
(-0.295011374016 0.02307630905 0)
(-0.288241782629 0.0243600437082 0)
(-0.281125676262 0.0256642962747 0)
(-0.273656938165 0.0269855648514 0)
(-0.265831047172 0.0283187320461 1.20744909282e-28)
(-0.257645704474 0.0296573194484 -1.23590322337e-28)
(-0.249101385806 0.0309939272254 0)
(-0.24020175953 0.0323208686533 0)
(-0.230953908136 0.0336310025351 0)
(-0.221368296163 0.0349187504068 0)
(-0.211458434921 0.0361812781337 0)
(-0.201240200965 0.0374198189713 0)
(-0.190730816778 0.0386410569365 0)
(-0.179947437637 0.0398586128402 0)
(-0.168905295225 0.0410945440934 0)
(-0.15761570395 0.0423804019981 0)
(-0.146083591427 0.0437585732592 0)
(-0.134304595393 0.0452827105871 0)
(-0.122262403168 0.0470167245504 0)
(-0.10992558428 0.0490326955524 0)
(-0.0972431120287 0.0514039623878 0)
(-0.0841404747679 0.0541877494834 0)
(-0.0705198458012 0.0573881922049 0)
(-0.0562383936095 0.0608859833907 0)
(-0.0410093840152 0.0642825553861 0)
(-0.025117015786 0.0661199065178 0)
(-0.0092479091357 0.0625805523986 0)
(-0.0243978490861 -0.0167141024153 0)
(-0.0407630920441 -0.0419787204373 0)
(-0.0623617005978 -0.0626902502642 0)
(-0.083287030178 -0.0786272281521 0)
(-0.103391028525 -0.0897043066108 0)
(-0.122652447761 -0.0965352751306 0)
(-0.141155005666 -0.0995517921364 0)
(-0.158930488872 -0.0996440565082 0)
(-0.175872037757 -0.0976175551802 0)
(-0.191870948968 -0.0940760816851 0)
(-0.206869513799 -0.0895105340359 0)
(-0.220845876388 -0.0843062452393 0)
(-0.233813003497 -0.0787613147214 0)
(-0.245806050468 -0.0730995338546 0)
(-0.256872649257 -0.0674824624942 0)
(-0.267065208018 -0.062020862091 0)
(-0.276435901093 -0.0567853891714 0)
(-0.285033844512 -0.0518161883724 0)
(-0.292903840409 -0.0471310901438 0)
(-0.300086100422 -0.0427322952024 0)
(-0.306616493985 -0.0386115980594 0)
(-0.312527018173 -0.0347543169778 0)
(-0.317846313813 -0.0311421504352 0)
(-0.322600141618 -0.0277551860137 0)
(-0.326811789495 -0.0245732658377 0)
(-0.330502412643 -0.0215768766785 0)
(-0.333691320251 -0.0187476962726 0)
(-0.336396224068 -0.0160688936203 0)
(-0.338633445641 -0.0135252592024 0)
(-0.340418074524 -0.0111032368977 0)
(-0.341764108823 -0.00879089587843 -7.60716972345e-29)
(-0.342684846745 -0.00657775443379 7.63482131267e-29)
(-0.343193703516 -0.00445424770467 0)
(-0.34330420918 -0.00241136152254 0)
(-0.343025720479 -0.00044250666735 0)
(-0.342355720542 0.00145307357334 0)
(-0.341344907785 0.00327685823956 0)
(-0.339979870829 0.00503701640616 0)
(-0.338274947079 0.00674041766305 0)
(-0.336238538992 0.00839323892827 0)
(-0.333879049002 0.0100014614996 0)
(-0.331204269332 0.0115709581043 0)
(-0.328221204617 0.0131076639567 0)
(-0.324935906569 0.0146177005589 0)
(-0.321353318332 0.0161074447904 0)
(-0.317477118796 0.0175835400569 0)
(-0.313309571493 0.019052846759 0)
(-0.308851390731 0.0205223289219 0)
(-0.304101642858 0.0219988741872 0)
(-0.29905770391 0.0234890480349 0)
(-0.293715296574 0.0249987882099 0)
(-0.288068628318 0.0265330533433 0)
(-0.282110648613 0.0280954477078 0)
(-0.275833435806 0.0296878528752 0)
(-0.269228715203 0.0313101027226 0)
(-0.262288499887 0.0329597436337 0)
(-0.255005829228 0.0346319278751 0)
(-0.247375565676 0.0363194861593 0)
(-0.239395196228 0.0380132152141 0)
(-0.231065573009 0.0397024152096 0)
(-0.222391524401 0.0413756815502 0)
(-0.213382264393 0.043021959652 0)
(-0.204051535673 0.0446318404747 0)
(-0.194417439066 0.0461990446574 0)
(-0.184501871787 0.0477221306063 0)
(-0.174329650488 0.0492061816428 0)
(-0.163927306394 0.0506646086486 0)
(-0.153321072829 0.0521213313297 0)
(-0.142535279871 0.0536114723034 0)
(-0.131590047819 0.055183561485 0)
(-0.12049814503 0.0569004410298 0)
(-0.109262585619 0.0588375243888 0)
(-0.0978738826302 0.0610820520792 0)
(-0.0863049415268 0.0637280563326 0)
(-0.074503522231 0.0668610814474 0)
(-0.0623928698719 0.0705218486124 0)
(-0.0498626230276 0.0746249954083 0)
(-0.0364847206227 0.0788520156445 0)
(-0.0227630648756 0.0816552912023 0)
(-0.00794321949741 0.0785982584533 0)
(-0.0218324293162 -0.0410156457672 0)
(-0.041539142967 -0.0657835082001 0)
(-0.0654302160702 -0.0847285349712 0)
(-0.0869224005256 -0.0992703248818 0)
(-0.106851892668 -0.10915435265 0)
(-0.125344748903 -0.114846765347 0)
(-0.142601293092 -0.116881545891 0)
(-0.158764338867 -0.116041311111 0)
(-0.173881628203 -0.113056847132 0)
(-0.1879863244 -0.108539251831 0)
(-0.201120424095 -0.102999487156 0)
(-0.213332099335 -0.0968449836755 0)
(-0.224675472869 -0.0903896090117 0)
(-0.23520497812 -0.0838652538537 0)
(-0.244971683899 -0.0774353336793 0)
(-0.25402105461 -0.0712084475516 0)
(-0.262392342894 -0.0652510921963 0)
(-0.270119045097 -0.0595986926902 0)
(-0.277229875656 -0.0542646316022 0)
(-0.283749842773 -0.049247292275 0)
(-0.289701186642 -0.044535340244 0)
(-0.295104087895 -0.0401115577212 0)
(-0.299977149119 -0.0359555533493 0)
(-0.304337692167 -0.0320456312874 0)
(-0.308201934721 -0.0283600488472 0)
(-0.311585097429 -0.0248778362637 0)
(-0.314501484142 -0.0215793055818 0)
(-0.316964559374 -0.0184463377064 0)
(-0.3189870021 -0.0154625182108 0)
(-0.320580752268 -0.0126131847558 0)
(-0.321757082398 -0.00988541327084 0)
(-0.322527246839 -0.00726782511573 0)
(-0.322903296965 -0.0047500087611 0)
(-0.322896184891 -0.00232239641082 0)
(-0.322508713179 2.07111228161e-05 0)
(-0.321758667091 0.00227643120976 0)
(-0.320666714 0.00444847979761 0)
(-0.319231955111 0.00654891544173 0)
(-0.317466821791 0.00858362902815 0)
(-0.315380120807 0.0105589918431 0)
(-0.31298055461 0.012481401955 0)
(-0.310276350006 0.0143573808424 0)
(-0.307275108788 0.0161936971876 0)
(-0.303983620154 0.0179974797376 0)
(-0.300407658221 0.0197762879437 0)
(-0.296551768092 0.0215381239755 0)
(-0.292419049946 0.0232913743921 0)
(-0.288010956403 0.0250446714427 0)
(-0.28332712432 0.0268066666922 0)
(-0.278365267597 0.0285857142218 0)
(-0.273121160898 0.0303894687637 0)
(-0.267588744593 0.0322244145343 0)
(-0.261760377159 0.0340953523919 0)
(-0.255627252195 0.0360048850648 0)
(-0.249179985887 0.0379529492427 0)
(-0.242409370786 0.0399364458525 0)
(-0.235307274105 0.0419490361622 0)
(-0.227867628474 0.0439811722642 0)
(-0.220087459579 0.0460203965864 0)
(-0.211967861907 0.0480519785465 0)
(-0.203514845706 0.0500598665804 0)
(-0.194739975716 0.0520279817842 0)
(-0.185660680989 0.0539418446228 0)
(-0.176300295483 0.0557903335904 0)
(-0.166687545129 0.0575679102683 0)
(-0.15685570816 0.059276631293 0)
(-0.146841913616 0.0609279491583 0)
(-0.136684184875 0.0625465851245 0)
(-0.126420640974 0.064169467787 0)
(-0.116086953683 0.0658494939392 0)
(-0.105712942175 0.0676577574304 0)
(-0.0953196636711 0.0696792435048 0)
(-0.0849169623552 0.0720140411709 0)
(-0.0745003767222 0.0747755741224 0)
(-0.0640379365998 0.078077317446 0)
(-0.0534671272092 0.0820028079831 0)
(-0.042751397592 0.0865089063955 0)
(-0.031251387326 0.0913985677519 0)
(-0.0199809882226 0.0951803493355 0)
(-0.00654048847729 0.0928344830236 0)
(-0.0195433344421 -0.0689764417086 0)
(-0.0403331216834 -0.0910905678969 0)
(-0.0650395422566 -0.107503438832 0)
(-0.0864093838567 -0.119968149649 0)
(-0.105898062238 -0.128073169326 0)
(-0.123590103882 -0.132217573399 0)
(-0.139757896928 -0.132931212055 0)
(-0.15461284833 -0.130920146557 0)
(-0.168303838538 -0.126864035708 0)
(-0.180954860571 -0.121359041807 0)
(-0.192673746182 -0.114908172371 1.13543165193e-28)
(-0.203552700436 -0.10791329575 -1.12126029182e-28)
(-0.213669583439 -0.100681274232 0)
(-0.223087530923 -0.0934353738052 0)
(-0.231856191472 -0.0863298043168 0)
(-0.240013794731 -0.07946457526 0)
(-0.247589739426 -0.0728990058054 0)
(-0.254607124373 -0.0666630358987 0)
(-0.261084867846 -0.0607661408507 0)
(-0.267039267295 -0.0552040516616 0)
(-0.272485017712 -0.0499636631418 0)
(-0.277435796606 -0.0450265419754 0)
(-0.281904550919 -0.0403713975261 0)
(-0.285903604279 -0.0359758018773 0)
(-0.289444681742 -0.0318173705922 0)
(-0.292538912568 -0.0278745554592 0)
(-0.295196849002 -0.0241271550567 0)
(-0.2974285105 -0.0205566176437 0)
(-0.299243420313 -0.0171461982808 0)
(-0.300650618139 -0.0138810108331 0)
(-0.301658819912 -0.0107479874716 0)
(-0.302277316657 -0.00773568293554 8.45947974003e-29)
(-0.302516698184 -0.00483392303684 -8.53193680964e-29)
(-0.302384923546 -0.0020340165162 0)
(-0.30187794753 0.000669058685933 0)
(-0.301035904044 0.00327362999365 0)
(-0.299846197791 0.00578544343944 0)
(-0.298322616524 0.00821571771562 0)
(-0.296474862712 0.0105710744506 0)
(-0.294312386919 0.0128581952821 0)
(-0.291844485687 0.0150837751352 0)
(-0.289080216193 0.017254759166 0)
(-0.286028221094 0.0193785269489 0)
(-0.282696502943 0.0214630371033 0)
(-0.279092165537 0.0235169181387 0)
(-0.275221131045 0.025549491359 0)
(-0.271087844123 0.0275707099159 0)
(-0.266694980508 0.0295909980289 0)
(-0.262043185626 0.0316209766831 0)
(-0.257130876808 0.0336710676242 0)
(-0.251954149451 0.0357509777001 0)
(-0.246506829003 0.037869081038 0)
(-0.240780707305 0.0400317319653 0)
(-0.234765990399 0.0422425594619 0)
(-0.228451964126 0.0445018115587 0)
(-0.221827885193 0.0468058046639 0)
(-0.214884084057 0.0491465672223 0)
(-0.207613197139 0.0515118051194 0)
(-0.200011484598 0.053885166429 0)
(-0.192080096353 0.0562469905475 0)
(-0.183826205124 0.0585754248765 0)
(-0.175263936161 0.0608479490076 0)
(-0.166414807634 0.0630434930068 0)
(-0.157308094627 0.0651443062163 0)
(-0.147980345793 0.0671389495299 0)
(-0.138474096679 0.0690249268854 0)
(-0.128839045987 0.0708091010952 0)
(-0.119125795407 0.0725163587654 0)
(-0.109388267699 0.0741835149619 0)
(-0.0996779675904 0.0758655267282 0)
(-0.0900431746531 0.077641922691 0)
(-0.0805240593367 0.0796069143085 0)
(-0.0711464795941 0.0818718231465 0)
(-0.0619280553588 0.0845692574956 0)
(-0.0528562045729 0.0878398418105 0)
(-0.0438655776185 0.0918136358985 0)
(-0.0350485795235 0.096498588742 0)
(-0.0254434013303 0.101807915862 0)
(-0.0168418485282 0.106462840201 0)
(-0.00505820991468 0.105006344548 0)
(-0.017713945054 -0.0965513620465 0)
(-0.0384348408841 -0.116205534937 0)
(-0.0627868808135 -0.130080962154 0)
(-0.0834579543798 -0.140239107437 0)
(-0.102241155494 -0.146303236982 0)
(-0.11906956647 -0.148678563598 0)
(-0.134249322794 -0.147886382647 0)
(-0.148017918431 -0.144583931969 0)
(-0.160577744012 -0.13940886351 0)
(-0.172101751101 -0.132929111335 0)
(-0.182733737774 -0.125622346707 0)
(-0.192588745595 -0.11786745722 0)
(-0.201755642271 -0.109950199349 0)
(-0.210300352734 -0.10207546344 0)
(-0.218270398819 -0.0943825642968 0)
(-0.225699588085 -0.0869603530698 0)
(-0.232612267078 -0.0798604337125 0)
(-0.239026696053 -0.0731078162856 0)
(-0.244957442054 -0.0667090483735 0)
(-0.25041689734 -0.0606582113254 0)
(-0.255416134121 -0.0549412610191 0)
(-0.259965321326 -0.0495391489252 0)
(-0.26407389285 -0.0444300649865 0)
(-0.26775060104 -0.0395910490845 0)
(-0.271003542971 -0.0349991411872 0)
(-0.273840204008 -0.0306321875989 0)
(-0.276267537504 -0.0264693846611 0)
(-0.278292070018 -0.0224916236188 0)
(-0.279919999115 -0.0186816939 0)
(-0.281157254298 -0.0150243637534 0)
(-0.282009764726 -0.0115063197372 0)
(-0.28248443027 -0.00811597853719 0)
(-0.28258956275 -0.00484351971714 0)
(-0.282329938154 -0.00168161541486 0)
(-0.281697311571 0.00137399076619 0)
(-0.280738145405 0.0043238275283 0)
(-0.279432684973 0.00717332388168 0)
(-0.27779655215 0.00993127108994 0)
(-0.275838591409 0.0126046256187 0)
(-0.273568650908 0.0152000193178 0)
(-0.270996867253 0.0177241786228 0)
(-0.268133496015 0.0201842515093 0)
(-0.264988663863 0.0225880496036 0)
(-0.261572085726 0.0249442326501 0)
(-0.257892741804 0.0272624319841 9.98227545365e-29)
(-0.253958515959 0.0295532978903 -1.0039585805e-28)
(-0.249775803814 0.0318284489399 0)
(-0.245349109376 0.0341002987488 0)
(-0.240680660004 0.0363817371276 0)
(-0.235770082815 0.0386856484967 0)
(-0.230614197898 0.0410242622351 0)
(-0.22520698689 0.0434083545908 0)
(-0.219539791894 0.0458463429192 0)
(-0.21360179082 0.0483433290899 0)
(-0.207380747515 0.050900203975 0)
(-0.20086405199 0.053512856629 0)
(-0.194040096566 0.056171564557 0)
(-0.186899784193 0.0588609090582 0)
(-0.179438224595 0.0615599030388 0)
(-0.171656362583 0.0642429107571 0)
(-0.16356239234 0.0668809719182 0)
(-0.155173203336 0.0694434239869 0)
(-0.146514683074 0.0719009983782 0)
(-0.1376227023 0.0742272674636 0)
(-0.128542877327 0.0764026811105 0)
(-0.119326889743 0.0784191999546 0)
(-0.110040477967 0.0802748906941 0)
(-0.100745461603 0.0819949446743 0)
(-0.0915173506558 0.0836146787071 0)
(-0.0824214923374 0.0851878934498 0)
(-0.0735266811413 0.0868027664492 0)
(-0.0648989962111 0.0885648364885 0)
(-0.0565758410093 0.0905955104061 0)
(-0.0485981473442 0.0930465563153 0)
(-0.0409761444166 0.0960858057103 0)
(-0.0336170514122 0.0998863539099 0)
(-0.0268001711132 0.104527115226 0)
(-0.0191322477272 0.109978401791 0)
(-0.0133688302563 0.11531044323 0)
(-0.00349989756841 0.114876317327 0)
(-0.0160842617485 -0.122401394398 0)
(-0.0361231046851 -0.140228218469 0)
(-0.0594996317153 -0.151814376602 0)
(-0.0791372580102 -0.159701919976 0)
(-0.0970264628167 -0.163686484941 0)
(-0.112936509051 -0.164233771251 0)
(-0.127190717009 -0.161876658152 0)
(-0.140022463952 -0.157248139355 0)
(-0.151653945576 -0.150952542242 0)
(-0.162276648366 -0.143524537118 0)
(-0.172047991926 -0.135407812386 0)
(-0.181090890493 -0.126949491022 0)
(-0.189497206323 -0.118407536858 0)
(-0.197332993497 -0.109964349847 0)
(-0.204644659614 -0.101742381641 0)
(-0.211464676988 -0.0938187308305 0)
(-0.217816226902 -0.086237333302 0)
(-0.223716546213 -0.0790184469271 0)
(-0.229179100095 -0.0721657359928 0)
(-0.234214858655 -0.0656714708081 0)
(-0.238832981767 -0.059520342688 0)
(-0.243041168876 -0.0536922879816 0)
(-0.246845853657 -0.0481645979315 0)
(-0.250252353179 -0.042913498504 0)
(-0.253265028451 -0.0379153199614 0)
(-0.255887476245 -0.0331473388877 0)
(-0.258122749103 -0.0285883515898 0)
(-0.259973571636 -0.0242190366373 0)
(-0.261442534862 -0.0200221684445 0)
(-0.262532253935 -0.0159826935907 0)
(-0.26324578522 -0.0120875941458 0)
(-0.263587474135 -0.00832551069572 0)
(-0.263562756949 -0.00468691629345 9.61550992737e-29)
(-0.263172970262 -0.00116587211595 -9.75618937005e-29)
(-0.262407635962 0.00223962010684 0)
(-0.261318476437 0.0055306345722 0)
(-0.259878907149 0.00871448136004 0)
(-0.258106005039 0.0117981710946 0)
(-0.256008436884 0.0147876935125 0)
(-0.253596713177 0.0176889663442 0)
(-0.250882080933 0.020508270582 0)
(-0.247876291109 0.0232525793238 0)
(-0.244591301919 0.0259298255523 0)
(-0.241038953952 0.0285491244024 0)
(-0.237230592579 0.0311209410696 0)
(-0.233176628336 0.0336571813507 0)
(-0.228886038685 0.0361711722804 0)
(-0.224365828886 0.0386774939934 0)
(-0.219620487366 0.0411916262294 0)
(-0.214651488979 0.0437293789517 0)
(-0.209456925006 0.0463060860505 0)
(-0.204031345053 0.0489355838523 0)
(-0.198365879115 0.051629036694 0)
(-0.192448736995 0.054393638282 0)
(-0.186266048195 0.0572314090405 0)
(-0.17980301034 0.0601381272801 0)
(-0.173045675728 0.0631022244404 0)
(-0.16598271793 0.0661048256748 0)
(-0.158607647118 0.0691194687377 0)
(-0.150920904332 0.0721133385456 0)
(-0.142931412514 0.0750489966528 0)
(-0.134659117154 0.077885474664 0)
(-0.126134354917 0.08058369047 0)
(-0.117400001056 0.0831062150733 0)
(-0.108512786716 0.0854221195694 0)
(-0.0995306429628 0.0875181882725 0)
(-0.0905437214136 0.089377143444 0)
(-0.0816151285626 0.0910246429619 0)
(-0.0728579210312 0.0924944813133 0)
(-0.0643450751526 0.0938367518929 0)
(-0.0561640815078 0.0951449686326 0)
(-0.0484234918427 0.0965405116611 0)
(-0.0411656552442 0.0981552668625 0)
(-0.0344574079336 0.100158723735 0)
(-0.0283400856253 0.102750113442 0)
(-0.0226756034603 0.106136097715 0)
(-0.0179568583303 0.110497880978 0)
(-0.0123317650978 0.115801169242 0)
(-0.00953636643822 0.121543668229 0)
(-0.00185013310846 0.122215824674 0)
(-0.014556951645 -0.14638504131 0)
(-0.0335751122928 -0.162831534193 0)
(-0.0556702940937 -0.17236951562 0)
(-0.0741091215507 -0.178127923425 0)
(-0.0909964186491 -0.180115111463 0)
(-0.105958012219 -0.17887990779 0)
(-0.119330190919 -0.174984183054 0)
(-0.131324369234 -0.169054164372 0)
(-0.142162101697 -0.161668696767 0)
(-0.152034027297 -0.153329395712 0)
(-0.161096840739 -0.144443735083 0)
(-0.169472116588 -0.13532462486 0)
(-0.177250252044 -0.126200767034 0)
(-0.184496424014 -0.11723164143 0)
(-0.191257021644 -0.108523029192 0)
(-0.197565214261 -0.10014060553 0)
(-0.203445171515 -0.0921207723978 0)
(-0.208914918028 -0.0844788464085 0)
(-0.213988098644 -0.0772151238736 0)
(-0.218675005565 -0.0703193919213 0)
(-0.222983179819 -0.0637743430989 0)
(-0.226917814163 -0.0575582067128 0)
(-0.230482091479 -0.0516467937471 0)
(-0.233677527239 -0.0460150766774 0)
(-0.236504337551 -0.0406383810091 0)
(-0.238961829834 -0.0354932478236 0)
(-0.241048795189 -0.0305580138787 0)
(-0.24276384832 -0.0258131661587 0)
(-0.244105713936 -0.021241539325 0)
(-0.245073515205 -0.0168283760308 0)
(-0.245667498229 -0.0125611087993 0)
(-0.245889711537 -0.00842866668718 0)
(-0.245742180668 -0.00442153354761 0)
(-0.245220948651 -0.000535432630545 0)
(-0.244314616483 0.00322536312923 0)
(-0.243081855988 0.00686196344507 0)
(-0.241490672509 0.0103868380147 0)
(-0.239558493371 0.0138031314848 0)
(-0.237294119282 0.0171150454984 0)
(-0.234708819389 0.0203272779797 0)
(-0.231814997372 0.0234452767689 0)
(-0.228625929075 0.0264754939958 0)
(-0.225155468168 0.0294256610275 0)
(-0.221417720727 0.0323050570941 0)
(-0.217426644505 0.0351247454684 0)
(-0.213195551029 0.0378977407766 0)
(-0.20873650222 0.0406390573525 0)
(-0.20405961797 0.0433655810413 0)
(-0.199172334757 0.0460957046399 0)
(-0.19407867612 0.0488486820652 0)
(-0.188778649078 0.0516436481054 0)
(-0.183267909132 0.0544983051989 0)
(-0.177537738244 0.057427445884 0)
(-0.171575558561 0.0604411676399 0)
(-0.165365917618 0.063543252652 0)
(-0.158891505835 0.0667299642918 0)
(-0.152135727834 0.0699877497258 0)
(-0.145084513366 0.073294107619 0)
(-0.13772933371 0.0766161766749 0)
(-0.130069958093 0.079912510228 0)
(-0.122115461714 0.0831359773256 0)
(-0.113889507649 0.0862323420562 0)
(-0.105426493171 0.0891511521703 0)
(-0.0967760051018 0.0918415762049 0)
(-0.088010723017 0.0942563024447 0)
(-0.0791835827213 0.0963793153726 0)
(-0.0704330752969 0.0981708610349 0)
(-0.0617916996588 0.0996556506075 0)