/*--------------------------------*- C++ -*----------------------------------*\
| =========                 |                                                 |
| \\      /  F ield         | OpenFOAM: The Open Source CFD Toolbox           |
|  \\    /   O peration     | Version:  v1806                                 |
|   \\  /    A nd           | Web:      www.OpenFOAM.com                      |
|    \\/     M anipulation  |                                                 |
\*---------------------------------------------------------------------------*/
FoamFile
{
    version     2.0;
    format      ascii;
    class       volVectorField;
    location    "300";
    object      U;
}
// * * * * * * * * * * * * * * * * * * * * * * * * * * * * * * * * * * * * * //

dimensions      [0 1 -1 0 0 0 0];


internalField   nonuniform List<vector> 
6400
(
(0.00544499757193 0.00853409856973 0)
(0.0146469220818 0.00668877614671 0)
(0.0178790606421 0.00618420259867 0)
(0.0159072286746 0.0024020346973 0)
(-0.000307256089353 -0.0103799915121 0)
(-0.028687604723 -0.0145990194499 0)
(-0.0520892453071 -0.0145970937293 0)
(-0.0766264564424 -0.0142852626574 0)
(-0.100920178922 -0.0137802779178 0)
(-0.124538219745 -0.0131213762968 0)
(-0.147158266212 -0.0123611625592 0)
(-0.168562903895 -0.011543643859 0)
(-0.188617050098 -0.0107035199383 0)
(-0.20725123527 -0.00986712152746 0)
(-0.224447025331 -0.00905368838907 0)
(-0.240224451802 -0.0082766149964 0)
(-0.254631377166 -0.00754459813038 0)
(-0.267734722243 -0.00686265001385 0)
(-0.279613421206 -0.00623297266155 0)
(-0.290352913919 -0.00565568260376 0)
(-0.300040955726 -0.00512940077205 0)
(-0.308764516616 -0.00465171253696 0)
(-0.316607555954 -0.0042195233143 0)
(-0.323649482228 -0.00382932009222 0)
(-0.329964135839 -0.00347736410298 0)
(-0.335619162165 -0.00315982304756 0)
(-0.340675666011 -0.00287286385413 0)
(-0.345188073172 -0.00261270958954 0)
(-0.349204120712 -0.00237567237682 0)
(-0.352764946156 -0.00215816799873 0)
(-0.355905237077 -0.00195671829265 0)
(-0.358653425197 -0.00176793947335 0)
(-0.361031902862 -0.00158852609983 0)
(-0.363057194629 -0.00141521174048 0)
(-0.364740039888 -0.0012445967982 0)
(-0.366085077061 -0.00107276832081 0)
(-0.367090474753 -0.000895116442426 0)
(-0.367747835563 -0.000707140322949 0)
(-0.368043993539 -0.00050581537295 0)
(-0.367965317001 -0.000289095175815 0)
(-0.367485284022 -5.73818134647e-05 0)
(-0.366581501652 0.000187897261227 0)
(-0.365231615163 0.000446982569063 0)
(-0.36341081895 0.000720991894209 0)
(-0.361092112374 0.00101121279893 0)
(-0.358246293869 0.00131889357028 0)
(-0.35484214507 0.00164517849792 0)
(-0.350846682032 0.00199105816252 0)
(-0.346225482028 0.0023573263435 0)
(-0.340943123332 0.00274449403105 0)
(-0.334963789042 0.0031526927329 0)
(-0.32825208348 0.0035815317293 0)
(-0.320774102619 0.0040299570105 0)
(-0.31249878325 0.00449607626927 0)
(-0.303399536245 0.00497700762238 0)
(-0.293456154615 0.00546870851936 0)
(-0.282656970556 0.00596586232218 0)
(-0.271001226313 0.00646174795555 0)
(-0.258501618431 0.00694817147995 0)
(-0.245186975304 0.00741536309709 0)
(-0.231104975448 0.00785193274348 0)
(-0.21632483407 0.00824488012451 0)
(-0.200939854248 0.00857971914926 0)
(-0.185069632615 0.00884089662942 0)
(-0.168861574629 0.00901237336428 0)
(-0.152491096509 0.00907860456046 0)
(-0.136159719471 0.0090259285014 0)
(-0.120090055979 0.00884440467696 0)
(-0.104516772592 0.00853099004488 0)
(-0.0896726692635 0.00809220422828 0)
(-0.0757705390332 0.0075465588789 0)
(-0.062981620392 0.00692575637441 0)
(-0.0514145491362 0.00627127535542 0)
(-0.0410987026182 0.00563287007833 0)
(-0.0319775565136 0.00505074278363 0)
(-0.0239133323935 0.00457016190187 0)
(-0.0167239725661 0.00420227108107 0)
(-0.0103320073675 0.00385773387081 0)
(-0.0049647384892 0.00314841877428 0)
(-0.000769567496306 0.000718977925382 0)
(0.00136299528916 0.017524630691 0)
(0.00986403186158 0.0117200427757 0)
(-0.0136459754643 -0.0126073205792 0)
(-0.0336936219405 -0.0235758793257 0)
(-0.0541393998159 -0.031012873056 0)
(-0.0778465458881 -0.034930753129 0)
(-0.101708683898 -0.0361962392321 0)
(-0.126282854104 -0.0363116166576 0)
(-0.150523679371 -0.0356330025063 0)
(-0.173960522493 -0.034378509054 0)
(-0.19625670637 -0.0327187752184 0)
(-0.217198896869 -0.0307915636095 0)
(-0.236663268964 -0.0287081085856 0)
(-0.254594647026 -0.0265564810441 0)
(-0.270989627318 -0.0244044537171 0)
(-0.285882721284 -0.0223023273252 0)
(-0.299335018868 -0.0202857369458 0)
(-0.31142508762 -0.0183783426946 0)
(-0.322241839785 -0.0165942901888 0)
(-0.331879087759 -0.0149403712434 0)
(-0.34043149865 -0.0134178463254 0)
(-0.347991677551 -0.0120239359057 0)
(-0.354648133203 -0.0107530025407 0)
(-0.360483920288 -0.0095974682959 0)
(-0.36557578806 -0.0085485057418 0)
(-0.369993684165 -0.00759655181746 0)
(-0.373800539286 -0.0067316789631 0)
(-0.377052214422 -0.0059438503405 0)
(-0.379797578789 -0.00522309625735 0)
(-0.382078664133 -0.00455963194236 0)
(-0.383930876082 -0.00394393330028 0)
(-0.385383262382 -0.0033667640208 0)
(-0.386458641601 -0.00281919319191 0)
(-0.387174114179 -0.00229255707041 0)
(-0.387541338487 -0.00177804102263 0)
(-0.387566358554 -0.00126594007247 0)
(-0.387248091215 -0.000746249284616 0)
(-0.386576768675 -0.000212584493285 0)
(-0.385552219321 0.000337456859982 0)
(-0.384172270961 0.000908119076515 0)
(-0.382433555258 0.0015053444699 0)
(-0.380322459933 0.00213295265522 0)
(-0.377818129368 0.00279457453409 0)
(-0.374896381029 0.00349388945375 0)
(-0.371530287005 0.00423433315654 0)
(-0.367690750621 0.00501901597706 0)
(-0.363346812308 0.0058506823718 0)
(-0.358465900212 0.00673165273141 0)
(-0.353014109788 0.007663704946 0)
(-0.346956581941 0.0086478817301 0)
(-0.340258042207 0.00968421334172 0)
(-0.332883557057 0.0107713689393 0)
(-0.324799550253 0.0119062493214 0)
(-0.315975101925 0.0130835594029 0)
(-0.306383537677 0.0142953872646 0)
(-0.296004289788 0.0155308405268 0)
(-0.284824994156 0.0167757388767 0)
(-0.272843785746 0.018012377196 0)
(-0.26007174424 0.0192193290356 0)
(-0.246535393738 0.0203713198605 0)
(-0.232279267973 0.0214391826405 0)
(-0.217368483931 0.0223899574351 0)
(-0.201891258476 0.02318729698 0)
(-0.185961099029 0.023792143529 0)
(-0.169718328794 0.0241642682118 0)
(-0.153330601808 0.024264333373 0)
(-0.13699132264 0.0240576036732 0)
(-0.120915897628 0.0235189770563 0)
(-0.1053340528 0.0226399482612 0)
(-0.0904773582737 0.0214354953067 0)
(-0.0765625548014 0.0199482119651 0)
(-0.0637690993561 0.0182560488513 0)
(-0.0522181813642 0.016458089958 0)
(-0.0419517285195 0.0146866080938 0)
(-0.0329367057539 0.0130354239304 0)
(-0.0250553376 0.0116307952882 0)
(-0.0181120802658 0.0105342991258 0)
(-0.0119395999458 0.00959665551599 0)
(-0.00654105683334 0.00822309791394 0)
(-0.00201982752079 0.00449019151845 0)
(-0.00528041617111 0.0132257145453 0)
(-0.0251787734596 -0.0159127193282 0)
(-0.0418634038816 -0.0317916979854 -7.46627869368e-29)
(-0.0634347759624 -0.0442973784822 5.28355476619e-29)
(-0.085004605449 -0.053336452384 4.10582039505e-29)
(-0.10735796156 -0.0584759675765 -3.44637247765e-29)
(-0.129854730181 -0.0604314079143 2.97214744479e-29)
(-0.152338446417 -0.0604361163791 -2.66639966491e-29)
(-0.174188918048 -0.0590682259886 0)
(-0.195046712238 -0.0567346547129 0)
(-0.214658033033 -0.0537430261736 0)
(-0.232876590394 -0.0503347195004 0)
(-0.249635249278 -0.0466995749905 0)
(-0.264925632724 -0.0429844373404 0)
(-0.278781195039 -0.039299758293 0)
(-0.291263730091 -0.0357255149583 0)
(-0.302452854178 -0.0323167039151 0)
(-0.31243804771 -0.0291083639462 0)
(-0.321312829786 -0.0261200066321 0)
(-0.329170638631 -0.0233593925275 0)
(-0.336102030282 -0.0208256336089 0)
(-0.342192858422 -0.018511672467 0)
(-0.34752316361 -0.0164062035983 0)
(-0.352166566331 -0.0144951321858 0)
(-0.356189970764 -0.0127626524521 0)
(-0.359653534108 -0.0111920326247 0)
(-0.362610736628 -0.00976616344164 0)
(-0.365108550419 -0.0084679324916 0)
(-0.367187645869 -0.00728047636784 0)
(-0.368882632309 -0.00618735561862 -9.15718983866e-29)
(-0.370222382164 -0.00517264937336 9.14883152358e-29)
(-0.371229921179 -0.00422101666932 0)
(-0.3719230804 -0.00331774783117 0)
(-0.372314902702 -0.00244860339685 0)
(-0.37241440414 -0.00159927847645 0)
(-0.372225200104 -0.00075503273359 0)
(-0.371740232675 9.71284331359e-05 0)
(-0.370960156723 0.000962376953557 0)
(-0.369892611679 0.00184582057065 0)
(-0.368513048785 0.00275939899921 0)
(-0.366805493781 0.00371399514107 0)
(-0.364749539136 0.0047192182239 0)
(-0.362322865223 0.0057828416377 0)
(-0.359500920912 0.006911332931 0)
(-0.356257068861 0.0081103126181 0)
(-0.352562805977 0.00938472669591 0)
(-0.348387945353 0.010738890086 0)
(-0.343700776618 0.0121764367416 0)
(-0.338468254963 0.0137001332144 0)
(-0.33265628482 0.0153115654453 0)
(-0.326230169621 0.0170106608295 0)
(-0.319155296166 0.0187950932588 0)
(-0.311398106215 0.0206595742366 0)
(-0.302927385236 0.0225951249528 0)
(-0.293715868617 0.0245883585145 0)
(-0.283742124776 0.026620866209 0)
(-0.272992678066 0.028668686186 0)
(-0.261464267178 0.0307019340727 0)
(-0.249166166239 0.0326845392004 0)
(-0.236122564068 0.0345741420967 0)
(-0.222375007654 0.0363221111454 0)
(-0.207984871732 0.0378737314749 0)
(-0.193035697518 0.0391685932586 0)
(-0.177635377715 0.0401418625388 0)
(-0.161917839929 0.0407263379001 0)
(-0.146043963825 0.0408561101342 0)
(-0.130200879393 0.0404733733047 0)
(-0.114599600518 0.0395348468964 0)
(-0.09946883644 0.0380242958322 0)
(-0.0850435567797 0.0359611621859 0)
(-0.0715503249311 0.0334079468749 0)
(-0.0591840820814 0.0304931739966 0)
(-0.0480879725341 0.0273613004761 0)
(-0.0383247570676 0.024259422101 0)
(-0.0298922434547 0.0213215766249 0)
(-0.0227142284066 0.0187627822698 0)
(-0.0165835924933 0.0167414408099 0)
(-0.0112528827317 0.0151059624384 0)
(-0.00651470053725 0.0132448332058 0)
(-0.00231741256132 0.00890519448238 0)
(-0.0203040131638 -0.00815069359964 0)
(-0.0364111158426 -0.0343466179303 0)
(-0.0578376078564 -0.0524140402675 0)
(-0.0800742579781 -0.0659085587574 0)
(-0.101692482309 -0.0751496069062 0)
(-0.123021342716 -0.0802892383209 0)
(-0.143843194683 -0.0820554592966 0)
(-0.164012277362 -0.0814335527481 0)
(-0.18323398893 -0.0790848868626 0)
(-0.201322163764 -0.0755310043734 0)
(-0.218150824723 -0.0711795276023 0)
(-0.233662634027 -0.0663506934581 0)
(-0.247852281044 -0.061292914519 0)
(-0.260752048058 -0.0561943149172 0)
(-0.2724189825 -0.0511926269468 0)
(-0.282924877488 -0.046384242448 0)
(-0.292348947976 -0.0418324883753 0)
(-0.300772786532 -0.0375749727205 0)
(-0.308277078178 -0.0336298617265 0)
(-0.314939572328 -0.0300010453505 0)
(-0.320833900499 -0.026682244982 0)
(-0.326028931426 -0.0236601816784 0)
(-0.330588453076 -0.0209169579845 0)
(-0.334571047156 -0.0184318017241 0)
(-0.3380300491 -0.0161823217065 0)
(-0.341013592848 -0.0141453897994 0)
(-0.343564667765 -0.0122977233023 0)
(-0.34572119203 -0.0106162755682 0)
(-0.347516102737 -0.0090784964149 0)
(-0.348977464249 -0.00766249540384 0)
(-0.350128572619 -0.00634708960433 0)
(-0.350987822666 -0.00511184800275 0)
(-0.351569185094 -0.00393714409375 0)
(-0.35188302436 -0.00280381199747 0)
(-0.351936526431 -0.00169262477995 0)
(-0.351730386631 -0.00058529327654 0)
(-0.35125066051 0.000532650682027 0)
(-0.350520632625 0.00167056953418 0)
(-0.349512183409 0.00284209309897 0)
(-0.34821439915 0.00406230487851 0)
(-0.346609827687 0.00534296915831 0)
(-0.344678455002 0.00669508677839 0)
(-0.342398003898 0.00812839604466 0)
(-0.339744196488 0.00965143715224 0)
(-0.336690997226 0.0112717422702 0)
(-0.333210798864 0.0129959994306 1.04755184322e-28)
(-0.329274528171 0.0148301368068 -1.0539451383e-28)
(-0.324851699242 0.0167792730403 0)
(-0.319910469597 0.018847488726 0)
(-0.314417779456 0.0210373799126 0)
(-0.308339665819 0.0233493905222 0)
(-0.301641842047 0.0257809423081 0)
(-0.294290615733 0.0283254237368 0)
(-0.286254187395 0.0309711165782 0)
(-0.277504320277 0.0337001539653 0)
(-0.268018332092 0.036487592986 0)
(-0.257781280036 0.039300700767 0)
(-0.246788242563 0.0420984737852 1.51754005688e-28)
(-0.23504663825 0.0448313967191 -1.5661228252e-28)
(-0.222578526134 0.0474413900564 0)
(-0.209422868479 0.0498617203929 0)
(-0.195637653227 0.0520172282022 0)
(-0.1813021783 0.053824855639 0)
(-0.166519243106 0.0551949680271 0)
(-0.151416804745 0.0560347369904 0)
(-0.136150221842 0.056251748425 0)
(-0.120901362661 0.0557638213489 0)
(-0.105878441634 0.0545048091635 0)
(-0.0913099919329 0.0524430238089 0)
(-0.0774344352415 0.0495970629033 0)
(-0.0644846291075 0.0460310646885 0)
(-0.0526703660156 0.0419391691938 0)
(-0.04216184726 0.0374760412352 0)
(-0.0330406801343 0.0330382017243 0)
(-0.0253193521653 0.0288018075489 0)
(-0.018960577092 0.0250233912172 0)
(-0.0137535296386 0.022040893087 0)
(-0.00941634041387 0.01974169715 0)
(-0.00561979908251 0.0176197672668 0)
(-0.00209774740374 0.0131225321523 0)
(-0.0211304550028 -0.0336163422624 0)
(-0.0408744535128 -0.0576012631394 0)
(-0.0649547729672 -0.0749766741682 0)
(-0.087617777929 -0.0878829509656 0)
(-0.108963163045 -0.0962754065796 0)
(-0.129220024865 -0.100586219392 0)
(-0.14839861049 -0.101532180389 0)
(-0.166488370843 -0.0999411859662 0)
(-0.183409419167 -0.096483635945 0)
(-0.199122573394 -0.0917262297119 0)
(-0.213613836691 -0.0861283933867 0)
(-0.226900947701 -0.0800544282406 0)
(-0.239024777985 -0.0737849700968 0)
(-0.250041501092 -0.0675290732005 0)
(-0.260015638893 -0.0614363351103 0)
(-0.269015093706 -0.0556085014027 0)
(-0.277108010495 -0.0501099887519 0)
(-0.284361020623 -0.0449769427805 0)
(-0.290838357815 -0.0402246785926 0)
(-0.296601443733 -0.035853556242 0)
(-0.30170867282 -0.0318534722133 0)
(-0.306215255469 -0.0282072066519 0)
(-0.310173073492 -0.024892868936 0)
(-0.313630467081 -0.021885656373 0)
(-0.316632111699 -0.0191591033498 0)
(-0.319218826027 -0.0166859574019 0)
(-0.32142744763 -0.0144387748748 0)
(-0.323290711012 -0.0123903238798 0)
(-0.324837197345 -0.0105138573181 0)
(-0.326091518076 -0.00878328175319 0)
(-0.327073460053 -0.00717326390574 -1.01858010016e-28)
(-0.327798931668 -0.00565932191468 1.02093033318e-28)
(-0.328279872295 -0.00421781133484 0)
(-0.328525469914 -0.00282561818456 0)
(-0.328541261269 -0.0014600149973 0)
(-0.328323850838 -0.000100843066415 0)
(-0.327857212468 0.00126604354889 0)
(-0.327169628054 0.00265884671944 0)
(-0.326228619011 0.00409949604971 0)
(-0.325022265655 0.00560466117708 0)
(-0.323531892147 0.00718944166324 0)
(-0.321736796798 0.00886720306835 0)
(-0.319614370694 0.01064961418 0)
(-0.317140436728 0.0125468419202 0)
(-0.314289509475 0.0145678234288 0)
(-0.311034938568 0.0167205287927 0)
(-0.307348919448 0.0190121285551 0)
(-0.303202397656 0.0214489841134 0)
(-0.298564937026 0.0240363807157 0)
(-0.293404653552 0.0267779608094 0)
(-0.287688338355 0.0296748390809 0)
(-0.28138189508 0.0327244359157 0)
(-0.274451198242 0.0359190956684 0)
(-0.266863428717 0.039244605981 0)
(-0.258588869255 0.0426787630715 0)
(-0.249603068643 0.0461901472303 0)
(-0.239889252098 0.0497372247132 0)
(-0.229440809966 0.0532678449027 0)
(-0.218263701853 0.0567190047409 0)
(-0.20637860451 0.0600168641102 0)
(-0.193822927684 0.0630767955353 0)
(-0.180652750369 0.0658038711505 0)
(-0.166944760625 0.0680935068819 0)
(-0.152798853023 0.0698330198718 0)
(-0.138339303525 0.0709054872535 0)
(-0.123719310964 0.0711907569533 0)
(-0.1091178364 0.070582955792 0)
(-0.0947434524905 0.0689871059477 0)
(-0.0808210120228 0.0663506474712 0)
(-0.0675989402503 0.0626973921731 0)
(-0.0553098439685 0.0580701247153 0)
(-0.0441973157072 0.0527774350284 0)
(-0.0344341248536 0.0469062643012 0)
(-0.0261381808266 0.0410687607871 0)
(-0.0193109990225 0.0354814191783 0)
(-0.0139246553179 0.0303811572954 0)
(-0.00978181446298 0.0263193975258 0)
(-0.00661078796994 0.0232710704251 0)
(-0.00405828831343 0.0209427653964 0)
(-0.0015947114084 0.0165958288317 0)
(-0.0200203601558 -0.0612621986058 0)
(-0.0414554936749 -0.0830989090389 0)
(-0.0667306955935 -0.0985441878801 0)
(-0.0892435545751 -0.109800715842 0)
(-0.110007280756 -0.116659104487 0)
(-0.129156094054 -0.119596215197 0)
(-0.14684083909 -0.119277615184 0)
(-0.163166420157 -0.116446608873 0)
(-0.17819212765 -0.11176181256 0)
(-0.191982330065 -0.1057978439 0)
(-0.204601042577 -0.0990297164071 0)
(-0.216116335641 -0.0918356868597 0)
(-0.226597011646 -0.0845055408066 0)
(-0.236110381513 -0.0772527289445 0)
(-0.244720778239 -0.0702278183032 0)
(-0.25248916904 -0.0635315602202 0)
(-0.259473460142 -0.0572265043365 0)
(-0.265729059633 -0.0513466663273 0)
(-0.271309367726 -0.045905193642 0)
(-0.276266034181 -0.0409002351496 0)
(-0.280648956832 -0.0363193332585 0)
(-0.284506078359 -0.0321426676458 0)
(-0.287883072081 -0.0283454357449 0)
(-0.290822962652 -0.0248995975462 0)
(-0.293365789907 -0.0217751460021 0)
(-0.295548307223 -0.0189410245108 0)
(-0.2974037474 -0.0163657976764 0)
(-0.29896164118 -0.0140181198398 0)
(-0.30024770529 -0.0118670357919 0)
(-0.30128381423 -0.0098821720457 0)
(-0.302087715705 -0.00803391263782 0)
(-0.302673082033 -0.00629352596264 0)
(-0.303050204131 -0.0046331239719 0)
(-0.303226968663 -0.00302554378909 0)
(-0.303206510903 -0.00144477691718 0)
(-0.302979444559 0.000132186182731 0)
(-0.302556049458 0.00172312709502 0)
(-0.30191748648 0.00335061662043 0)
(-0.30105167699 0.00504045738343 0)
(-0.299942730019 0.00681207922793 0)
(-0.298571314845 0.00868310513242 0)
(-0.296915840102 0.0106689349316 0)
(-0.294953120826 0.0127828402272 0)
(-0.292658896409 0.0150362431679 0)
(-0.290008172824 0.0174391208654 0)
(-0.286975349293 0.0200004281583 0)
(-0.283534113641 0.0227284140422 0)
(-0.279657145308 0.0256306994078 0)
(-0.275315717848 0.0287140080421 0)
(-0.270479342808 0.0319834746859 0)
(-0.265115625207 0.0354415077418 0)
(-0.259190504434 0.0390862394608 0)
(-0.25266902301 0.0429096730543 0)
(-0.245516704826 0.0468956983583 0)
(-0.237701545818 0.0510182013209 0)
(-0.229196527378 0.0552394881957 0)
(-0.219982439155 0.0595091406647 0)
(-0.210050669094 0.0637634686193 0)
(-0.199405841975 0.0679252804261 0)
(-0.188067821905 0.0719044769528 0)
(-0.176073751051 0.0755981039627 0)
(-0.163479469434 0.0788920039953 0)
(-0.150361369924 0.0816606747354 0)
(-0.136819780786 0.0837678919937 0)
(-0.122978422889 0.0850733986663 0)
(-0.10899330586 0.0854254337594 0)
(-0.095038033254 0.0846936732459 0)
(-0.0813286357772 0.0827510189232 0)
(-0.0680790123012 0.0795169875252 0)
(-0.0555812677648 0.0750503031173 0)
(-0.0440350641262 0.0693082898269 0)
(-0.0337693830293 0.0627969394451 0)
(-0.0248928086285 0.0554819043 0)
(-0.0175884049814 0.0481441234513 0)
(-0.0118481100033 0.0411287464325 0)
(-0.00760241184937 0.0345810121058 0)
(-0.00471208041617 0.0292875465381 0)
(-0.00292129576821 0.0253518594451 0)
(-0.00191197616032 0.0227358973258 0)
(-0.000863431367247 0.0187319121231 0)
(-0.0185497303133 -0.089506030634 0)
(-0.0402115599614 -0.108966869503 0)
(-0.0654216065223 -0.122076383541 0)
(-0.0872122518006 -0.13120224875 0)
(-0.107110828135 -0.13613163935 0)
(-0.125110264028 -0.137362245459 0)
(-0.141438080657 -0.135517473442 0)
(-0.156263628164 -0.131290248623 0)
(-0.169727298161 -0.125318565883 0)
(-0.181956109738 -0.118164593172 0)
(-0.193060315381 -0.110295157532 1.35116277334e-28)
(-0.203136493987 -0.102081020512 -1.34295373472e-28)
(-0.212267946605 -0.0938044216162 0)
(-0.220526634717 -0.0856716623052 0)
(-0.227975620533 -0.0778272270157 0)
(-0.234671692468 -0.070367224365 0)
(-0.240667637248 -0.0633509615055 0)
(-0.246013865968 -0.0568102755964 0)
(-0.25075932673 -0.0507567464235 0)
(-0.254951806257 -0.0451871436149 0)
(-0.258637801035 -0.0400875060861 0)
(-0.261862146867 -0.0354362025878 0)
(-0.26466756404 -0.0312062405198 0)
(-0.267094204717 -0.0273670156788 0)
(-0.269179275729 -0.0238856330056 0)
(-0.270956750465 -0.0207278934947 0)
(-0.272457166188 -0.0178590321458 0)
(-0.273707485953 -0.0152442491274 0)
(-0.274731010704 -0.0128490553659 0)
(-0.275547337391 -0.0106394982706 0)
(-0.276172158173 -0.00858232335155 0)
(-0.276617282715 -0.00664507746866 1.1911385082e-28)
(-0.276891371494 -0.00479614938468 -1.19767666265e-28)
(-0.27700061834 -0.00300494388978 0)
(-0.276945564988 -0.00124266578266 0)
(-0.276713135058 0.00051697339668 0)
(-0.27631458066 0.00229908445717 0)
(-0.275726246604 0.0041314069973 0)
(-0.274934906669 0.00604116990582 0)
(-0.273921653738 0.00805160819198 0)
(-0.27266511099 0.0101828345074 0)
(-0.27114204075 0.0124519428234 0)
(-0.269328157361 0.0148732531076 0)
(-0.26719881213 0.0174587609624 0)
(-0.2647294475 0.0202187690896 0)
(-0.261895715536 0.0231625796824 0)
(-0.258673226951 0.0262990678506 0)
(-0.255036973916 0.0296369440345 0)
(-0.25096056099 0.0331845329797 0)
(-0.24641543833 0.036948954337 0)
(-0.24137036831 0.0409346660365 0)
(-0.235791363549 0.0451414345855 0)
(-0.229642316712 0.0495618881223 0)
(-0.222886432706 0.0541789093687 0)
(-0.215488544938 0.0589631018861 0)
(-0.207418070555 0.0638707109167 0)
(-0.198652463836 0.0688420604477 0)
(-0.189180401876 0.0738011998253 0)
(-0.179005073511 0.0786555263073 0)
(-0.168145761651 0.0832982378873 0)
(-0.156640720009 0.0876071107814 0)
(-0.144547222264 0.0914489095811 0)
(-0.131944602004 0.0946762673672 0)
(-0.118937428317 0.0971291342569 0)
(-0.105648649144 0.0986442404852 0)
(-0.0922404605042 0.0990321092129 0)
(-0.0788762207151 0.0981416006966 0)
(-0.0658099348328 0.0958229561288 0)
(-0.0532103933555 0.0919370106111 0)
(-0.0414916149389 0.086638782441 0)
(-0.0307270857105 0.0797254810823 0)
(-0.0214231940098 0.0719439580377 0)
(-0.0135207621866 0.0630945652547 0)
(-0.00730361642259 0.0540636893746 0)
(-0.00281502866504 0.0454472253066 0)
(0.000108169822384 0.0373094309071 0)
(0.00149778328038 0.0306572518945 0)
(0.00163242196252 0.0257070804981 0)
(0.000819049258771 0.022579456974 0)
(0.000120507549944 0.0189998133023 0)
(-0.0169900716335 -0.11659718844 0)
(-0.0380294573359 -0.134036834184 0)
(-0.0623620695968 -0.144821593257 0)
(-0.083025520038 -0.151686349162 0)
(-0.101845692253 -0.15453276185 0)
(-0.118655130016 -0.153906958073 0)
(-0.133722332226 -0.150417689945 0)
(-0.1472378878 -0.144729319415 0)
(-0.159380288409 -0.137456398163 0)
(-0.170306326519 -0.129138096548 0)
(-0.180148006873 -0.120219853947 0)
(-0.189014698345 -0.111053146909 0)
(-0.196995914614 -0.101904056543 0)
(-0.204165774264 -0.0929665149865 0)
(-0.210587565874 -0.0843764507807 0)
(-0.216317719484 -0.0762246620397 0)
(-0.221408701741 -0.0685674809204 0)
(-0.225910760999 -0.0614351348859 0)
(-0.229872700174 -0.0548381334063 0)
(-0.233341968206 -0.048772129381 0)
(-0.236364363125 -0.0432216600338 0)
(-0.238983579985 -0.0381630707596 0)
(-0.241240760672 -0.0335668242305 0)
(-0.24317411625 -0.0293993257465 0)
(-0.244818653715 -0.0256243515346 0)
(-0.24620600625 -0.0222041441172 0)
(-0.247364343142 -0.019100240692 0)
(-0.248318327959 -0.0162740639734 0)
(-0.249089085153 -0.0136873083789 0)
(-0.24969417444 -0.0113021857966 0)
(-0.250147445762 -0.00908157592666 0)
(-0.250459026227 -0.00698914109564 0)
(-0.250635946483 -0.00498940030795 0)
(-0.25068241067 -0.00304810249548 0)
(-0.250596313361 -0.00113311716124 0)
(-0.250362179975 0.000785679865759 0)
(-0.249990579338 0.00273860697559 0)
(-0.249452476081 0.0047572860108 0)
(-0.248732670749 0.00687169626724 0)
(-0.247809003687 0.00910792835425 0)
(-0.246657178174 0.0114882029343 0)
(-0.245251418058 0.0140308591036 0)
(-0.243565573807 0.0167506144084 0)
(-0.241574112759 0.0196591894305 0)
(-0.239252782961 0.0227662697589 1.3407265106e-28)
(-0.23657877094 0.0260806264836 -1.33747763424e-28)
(-0.233530269014 0.0296111180365 0)
(-0.23008551995 0.0333672711798 0)
(-0.226221519777 0.0373591870938 0)
(-0.221912653619 0.0415965908871 0)
(-0.217129588799 0.0460870258238 0)
(-0.211838802252 0.0508332187765 0)
(-0.20600294381 0.055829850519 0)
(-0.199582391486 0.0610600368625 0)
(-0.192537938009 0.0664918339259 0)
(-0.184834257243 0.0720755438521 0)
(-0.176444397373 0.0777413546187 0)
(-0.167353055872 0.0834003303108 0)
(-0.157562052196 0.0889423568998 0)
(-0.147089474686 0.0942436533398 0)
(-0.135977533049 0.0991590471652 0)
(-0.124285648582 0.103537795357 0)
(-0.112098935442 0.107207283575 0)
(-0.0995240936372 0.109982254475 0)
(-0.0866842691948 0.111677804197 0)
(-0.073762497822 0.112069344372 0)
(-0.060893819088 0.110976906146 0)
(-0.0484346539916 0.108256025538 0)
(-0.0364280315565 0.103673058934 0)
(-0.0255197226833 0.0975159213972 0)
(-0.0155094944077 0.0893386049289 0)
(-0.00716947993576 0.0800926397666 0)
(-0.000245224564966 0.0694882216994 0)
(0.00484135076369 0.0585244322484 0)
(0.00794456384472 0.0481374443381 0)
(0.00925568751839 0.0385919844352 0)
(0.00891934858963 0.0304596833228 0)
(0.00715366824191 0.0241823429326 0)
(0.00428605152086 0.0201601906128 0)
(0.00152262795195 0.01696966791 0)
(-0.015408574669 -0.141886928941 0)
(-0.0353469529187 -0.157712329462 0)
(-0.0583471297646 -0.166327740353 0)
(-0.0776482918138 -0.170981402767 0)
(-0.0952564511928 -0.171749733595 0)
(-0.110851091196 -0.169248411704 0)
(-0.12472492851 -0.1640952981 0)
(-0.137061033364 -0.156942607321 0)
(-0.148047968163 -0.148383391993 0)
(-0.157849501873 -0.138930560646 0)
(-0.166602951418 -0.129003095826 0)
(-0.174420571062 -0.118928866585 0)
(-0.181393576537 -0.108955087743 0)
(-0.187597608599 -0.0992621084075 0)
(-0.193097874603 -0.0899770141169 0)
(-0.197953179413 -0.0811853323559 0)
(-0.202218541728 -0.0729403703072 0)
(-0.205946538339 -0.0652704218241 0)
(-0.209187721536 -0.0581843296464 0)
(-0.211990489469 -0.0516758688139 0)
(-0.214400722529 -0.0457272917195 0)
(-0.216461395401 -0.04031224399 0)
(-0.218212278336 -0.0353981624696 0)
(-0.219689754049 -0.0309482174549 0)
(-0.220926735272 -0.0269228459694 0)
(-0.221952664646 -0.0232809209681 0)
(-0.222793562696 -0.0199806189588 0)
(-0.22347209108 -0.0169800161044 0)
(-0.224007568594 -0.014237456674 0)
(-0.224415946111 -0.0117117650819 0)
(-0.224709674206 -0.00936234309013 0)
(-0.224897606838 -0.00714926448927 0)
(-0.224985451109 -0.00503333718404 1.45417616224e-28)
(-0.224975602276 -0.00297648950463 -1.46711165001e-28)
(-0.224863644832 -0.000942603144384 0)
(-0.224632589213 0.00110306873727 0)
(-0.224290400613 0.00319674111361 0)
(-0.22380292558 0.00537518470747 0)
(-0.223151901499 0.00767156087967 0)
(-0.222311037808 0.0101147262623 0)
(-0.221251894687 0.0127287484046 0)
(-0.219944834607 0.0155326553456 0)
(-0.218360632211 0.0185406307189 0)
(-0.216471995335 0.021762846808 0)
(-0.214254642658 0.0252069137875 0)
(-0.21168758322 0.0288796680987 0)
(-0.208752476858 0.032788850138 0)
(-0.205432156457 0.0369442190982 0)
(-0.201708580047 0.0413577070684 0)
(-0.197560626797 0.0460424612016 0)
(-0.192962229523 0.0510105487016 0)
(-0.187881148681 0.0562695396713 0)
(-0.182279212924 0.0618180812803 0)
(-0.176113686714 0.0676412544487 0)
(-0.169340618856 0.0737052297733 0)
(-0.16191843397 0.0799550379268 0)
(-0.153815094308 0.0863094313966 0)
(-0.145009090116 0.0926667001838 0)
(-0.135503043419 0.0988941056381 0)
(-0.125311063552 0.104853707725 0)
(-0.114484923262 0.110368689596 0)
(-0.103077680583 0.115275405939 0)
(-0.0911899076448 0.119366160001 0)
(-0.0789248082183 0.12243944233 0)
(-0.0664115475874 0.124283807295 0)
(-0.0538780103955 0.124652444981 0)
(-0.0413974814976 0.12332658878 0)
(-0.029505573782 0.120189294654 0)
(-0.0180019463473 0.114839103569 0)
(-0.0078237773004 0.107654628367 0)
(0.0015475747171 0.0979619810224 0)
(0.00908041920279 0.0868752521784 0)
(0.0148226838099 0.0747151400965 0)
(0.0186568282868 0.0620438300675 0)
(0.0203971594835 0.0496138897456 0)
(0.0200527963914 0.0381176627395 0)
(0.0177803429918 0.02818325079 0)
(0.0138353950412 0.0204012100439 0)
(0.00859264986515 0.0154149517169 0)
(0.00341296400117 0.0126447471205 0)
(-0.0138597362485 -0.165178887705 0)
(-0.0324431406166 -0.179727699904 0)
(-0.0538750460516 -0.186363154379 0)
(-0.0716995309192 -0.188937647717 0)
(-0.0880281567091 -0.187720355673 0)
(-0.102404060858 -0.183404118021 0)
(-0.115137018635 -0.176630613841 0)
(-0.126385495902 -0.16805100055 0)
(-0.136332121848 -0.158240787581 0)
(-0.145133845334 -0.147687945233 0)
(-0.152923626498 -0.136785328591 0)
(-0.159811021209 -0.125837761654 0)
(-0.165886610169 -0.115074582306 0)
(-0.171227333081 -0.104663697073 0)
(-0.175901156924 -0.0947242617036 0)
(-0.179970392375 -0.0853369675883 0)
(-0.183493573025 -0.0765519921887 0)
(-0.186526204273 -0.0683951427687 0)
(-0.189120810638 -0.0608727613742 0)
(-0.191326667379 -0.0539758066851 0)
(-0.193189488649 -0.0476833451714 0)
(-0.194751221364 -0.0419655516313 0)
(-0.196049995586 -0.036786239496 0)
(-0.197120203262 -0.0321049210403 0)
(-0.197992641852 -0.0278784159362 0)
(-0.198694687787 -0.0240620524752 0)
(-0.199250466467 -0.0206105427079 0)
(-0.199680998089 -0.0174785642141 0)
(-0.200004240398 -0.014621101362 0)
(-0.200235040512 -0.0119936047936 0)
(-0.200384959998 -0.00955199835183 0)
(-0.200462082214 -0.0072527108012 0)
(-0.200471259587 -0.00505265240483 0)
(-0.200413499689 -0.00290956641145 0)
(-0.200282565119 -0.000782743831336 0)
(-0.20006067865 0.00136783796902 0)
(-0.199751970015 0.00358389183165 0)
(-0.19931807453 0.00590707065086 0)
(-0.198736475924 0.00837433445459 0)
(-0.197975480811 0.0110177084752 0)
(-0.197000732633 0.0138631841008 0)
(-0.1957766959 0.0169300370962 0)
(-0.194269068083 0.0202308310664 0)
(-0.192447231991 0.023772469359 0)
(-0.190286053863 0.0275583667371 0)
(-0.187766446303 0.0315912907323 0)
(-0.184874482109 0.0358761199739 0)
(-0.181599219032 0.0404218106307 0)
(-0.177929628496 0.0452421764475 0)
(-0.173851260953 0.0503547375541 0)
(-0.169343187751 0.0557779041585 0)
(-0.164376020337 0.0615265111639 0)
(-0.158911620835 0.0676054619744 0)
(-0.15290391416 0.0740039499365 0)
(-0.146304132044 0.0806877260612 0)
(-0.139062327258 0.0875983223508 0)
(-0.131143035839 0.0946394757882 0)
(-0.122514455342 0.101700898955 0)
(-0.113186669692 0.108615913903 0)
(-0.103156490916 0.115242026177 0)
(-0.0925031659121 0.121348387866 0)
(-0.0812504673184 0.126779310617 0)
(-0.0695423218346 0.131273062767 0)
(-0.057459110085 0.134629101598 0)
(-0.045157487304 0.13659988936 0)
(-0.0329254868756 0.13694360949 0)