/*--------------------------------*- C++ -*----------------------------------*\
| =========                 |                                                 |
| \\      /  F ield         | OpenFOAM: The Open Source CFD Toolbox           |
|  \\    /   O peration     | Version:  v1806                                 |
|   \\  /    A nd           | Web:      www.OpenFOAM.com                      |
|    \\/     M anipulation  |                                                 |
\*---------------------------------------------------------------------------*/
FoamFile
{
    version     2.0;
    format      ascii;
    class       volVectorField;
    location    "300";
    object      Ua;
}
// * * * * * * * * * * * * * * * * * * * * * * * * * * * * * * * * * * * * * //

dimensions      [0 1 -1 0 0 0 0];


internalField   nonuniform List<vector> 
6400
(
(-0.713865177291 -0.236005011595 0)
(-1.37177917993 0.502007351801 0)
(-2.25200825904 1.07232897543 0)
(-3.06311209264 0.527309897717 0)
(-4.14867205908 -0.885201589751 0)
(-4.52748924724 -2.50354816683 0)
(-5.00118456182 -3.70697570689 0)
(-5.38617068012 -5.00383868273 0)
(-5.68424698169 -6.37096786359 0)
(-5.91742497872 -7.78494590728 0)
(-6.10386323332 -9.23259231121 0)
(-6.25433279305 -10.7049521769 0)
(-6.37526312174 -12.1943877194 0)
(-6.4713929328 -13.694242032 0)
(-6.54681579832 -15.1990121707 0)
(-6.60512113062 -16.7043339811 0)
(-6.64933219395 -18.2067807481 0)
(-6.68191842425 -19.7036337205 0)
(-6.70488650618 -21.192708244 0)
(-6.71988245942 -22.6722478238 0)
(-6.72826797705 -24.1408589879 0)
(-6.73117047685 -25.5974667338 0)
(-6.72951944134 -27.041282045 0)
(-6.72407754834 -28.4717809959 0)
(-6.71546855549 -29.8886980191 0)
(-6.70420163812 -31.2920311144 0)
(-6.69069132012 -32.682060918 0)
(-6.67527423124 -34.0593793612 0)
(-6.65822223755 -35.4249320346 0)
(-6.639755605 -36.7800682009 0)
(-6.62005139114 -38.1266084145 0)
(-6.59927000364 -39.4669274334 0)
(-6.57756356651 -40.8041046267 0)
(-6.55522669878 -42.1421588549 0)
(-6.5325660956 -43.4865246082 0)
(-6.51007726803 -44.8436197705 0)
(-6.48445536268 -46.2168287852 0)
(-6.44849342328 -47.5905357381 0)
(-6.39673998394 -48.9384151448 0)
(-6.33155791581 -50.1761964786 0)
(-6.25674230012 -51.2596767691 0)
(-6.17486907366 -52.174385579 0)
(-6.08713569722 -52.9075395709 0)
(-5.99385796234 -53.4467394261 0)
(-5.89509243198 -53.7797382399 0)
(-5.79091539738 -53.8946052371 0)
(-5.68149006364 -53.7800130091 0)
(-5.56710207562 -53.4256163343 0)
(-5.44821365387 -52.8225516419 0)
(-5.32552589104 -51.9640609362 0)
(-5.20003529866 -50.8462275422 0)
(-5.07308450206 -49.4688043613 0)
(-4.94640186548 -47.836101182 0)
(-4.8221242328 -45.957880124 0)
(-4.7027878654 -43.8501723845 0)
(-4.59127518864 -41.5359098949 0)
(-4.49070446366 -39.0452325834 0)
(-4.40425588221 -36.4153415587 0)
(-4.33493697769 -33.6897697082 0)
(-4.28529963215 -30.9170070583 0)
(-4.25713794724 -28.1484709583 0)
(-4.25120434722 -25.4359292586 0)
(-4.26699337518 -22.8285676816 0)
(-4.30263603663 -20.370001776 0)
(-4.35494037573 -18.0955695627 0)
(-4.41958893822 -16.0302583905 0)
(-4.49147455963 -14.1875255185 0)
(-4.56511554832 -12.5691637718 0)
(-4.63505149481 -11.1661190388 0)
(-4.6960970574 -9.95998935742 0)
(-4.74331470671 -8.92472216572 0)
(-4.7715928892 -8.02785934917 0)
(-4.77478826292 -7.23081204346 0)
(-4.74448633994 -6.48790693502 0)
(-4.66875162918 -5.7439717915 0)
(-4.52747930094 -4.9314709463 0)
(-4.29239174179 -3.96373483714 0)
(-3.8830927346 -2.74947653768 0)
(-3.11044034159 -1.06423290503 0)
(-1.20534043917 0.656715642569 0)
(-1.30864094511 -1.71947329166 0)
(-1.69782650984 -0.867409695599 0)
(-2.93566392009 -2.6318242409 0)
(-3.52571676379 -2.21559798597 0)
(-4.18382104905 -1.27153789605 0)
(-4.83098698064 -0.285676758175 0)
(-5.46193080252 0.61783698185 0)
(-6.07707394813 1.48033394304 0)
(-6.66024382837 2.34130946015 0)
(-7.20119581141 3.21917547386 0)
(-7.69761299599 4.11985615906 0)
(-8.15018287972 5.04482107539 0)
(-8.56030230608 5.99398984391 0)
(-8.92993328923 6.96650671621 0)
(-9.26168407222 7.96107386837 0)
(-9.55856319354 8.97617287898 0)
(-9.82364174394 10.0102001497 0)
(-10.0598376342 11.0615311647 0)
(-10.2698406898 12.1285561803 0)
(-10.4561072967 13.2096974332 0)
(-10.6208729226 14.303429058 0)
(-10.7661626226 15.4082942382 0)
(-10.8938019335 16.5229321395 0)
(-11.0054291692 17.6461041256 0)
(-11.1025105251 18.7767299804 0)
(-11.1863546629 19.9139241482 0)
(-11.2581265001 21.0570427063 0)
(-11.3188583469 22.2057327969 0)
(-11.3694603217 23.3599931548 0)
(-11.410726809 24.5202408341 0)
(-11.4433481806 25.6873818724 0)
(-11.4678998109 26.862911199 0)
(-11.4848807711 28.0489702372 0)
(-11.4945941427 29.248536588 0)
(-11.4977587013 30.4651483598 0)
(-11.4959779757 31.7033097032 0)
(-11.4993165109 32.9651744426 0)
(-11.5146735419 34.2013086961 0)
(-11.5349451635 35.3646122641 0)
(-11.5475576532 36.3954146027 0)
(-11.5461641707 37.2635449967 0)
(-11.529565578 37.9605560016 0)
(-11.4971351382 38.476903862 0)
(-11.4476731475 38.8028969786 0)
(-11.3794915603 38.9293052581 0)
(-11.2905312281 38.8478248282 0)
(-11.1783463409 38.5515818592 0)
(-11.0400625709 38.0357058804 0)
(-10.8723649738 37.2979369364 0)
(-10.6715282762 36.3392643072 0)
(-10.4334888457 35.164565959 0)
(-10.1539776278 33.7832319175 0)
(-9.82872983595 32.2096927667 0)
(-9.45379632454 30.4637954051 0)
(-9.02596179634 28.5709052593 0)
(-8.54327029931 26.5616671553 0)
(-8.00562598881 24.4713164935 0)
(-7.41541664992 22.338537155 0)
(-6.77807230685 20.2038568132 0)
(-6.10245033748 18.1077068551 0)
(-5.40093110221 16.0882740804 0)
(-4.68912107103 14.1793920799 0)
(-3.98511095707 12.4086757198 0)
(-3.30829586735 10.7961534798 0)
(-2.67785591013 9.3535239902 0)
(-2.11106922441 8.0841743305 0)
(-1.62170043177 6.98388695719 0)
(-1.21872000683 6.04217019451 0)
(-0.905616717213 5.24386741687 0)
(-0.680398071631 4.57087987963 0)
(-0.536286367772 4.00378553648 0)
(-0.46307931632 3.52219839344 0)
(-0.448326953058 3.1060406775 0)
(-0.479385955868 2.73240715871 0)
(-0.540867305946 2.38371986938 0)
(-0.620571121945 2.0396091595 0)
(-0.690171205612 1.71166722488 0)
(-0.757304508051 1.47238216035 0)
(-0.358803675707 1.94191392952 0)
(-0.757523182985 2.38169721975 0)
(-2.05851935862 -3.06025351522 0)
(-3.5051635265 -2.07142290157 0)
(-3.10085855009 -1.14472325524 1.39666956417e-28)
(-2.65126339612 -1.05214626403 -9.87326104757e-29)
(-2.72975425354 -1.06789435116 -5.69101916208e-29)
(-3.02823590557 -1.14639718247 4.77438498147e-29)
(-3.40007195919 -1.27232014226 -1.24324470183e-29)
(-3.79932749657 -1.41836783579 1.11514556389e-29)
(-4.1884653477 -1.57485623063 0)
(-4.54208154431 -1.74712813621 0)
(-4.85134830571 -1.94391298503 0)
(-5.1162873613 -2.17207229337 0)
(-5.33966920695 -2.43602599556 0)
(-5.52507170631 -2.73830133837 0)
(-5.67647438829 -3.08007641264 0)
(-5.79795206955 -3.46159561143 0)
(-5.89337156181 -3.882469818 0)
(-5.96622805371 -4.34187795782 0)
(-6.0196155796 -4.83870014714 0)
(-6.05625903967 -5.37161321118 0)
(-6.07855557458 -5.93916242823 0)
(-6.08860901024 -6.53981932198 0)
(-6.08825737739 -7.17202676823 0)
(-6.07909701296 -7.83424073825 0)
(-6.06250418282 -8.52496885394 0)
(-6.03965425052 -9.24281444033 0)
(-6.01153814627 -9.98652312662 0)
(-5.9789756863 -10.7550407395 0)
(-5.94262829774 -11.5475747024 0)
(-5.90300578588 -12.3636760563 -5.5242168688e-28)
(-5.86048427428 -13.2033145388 5.51904272459e-28)
(-5.81528883903 -14.0670268798 0)
(-5.76755175409 -14.9559364014 0)
(-5.71704987883 -15.8722080215 0)
(-5.66309009766 -16.8183826709 0)
(-5.6014966956 -17.7999729544 0)
(-5.52503392569 -18.7966637916 0)
(-5.44115103684 -19.7096631747 0)
(-5.36230293024 -20.4938303585 0)
(-5.29308294759 -21.1437035256 0)
(-5.2333591192 -21.6488669781 0)
(-5.18199667242 -21.9988558468 0)
(-5.13877142171 -22.1847637656 0)
(-5.10408333511 -22.1993123897 0)
(-5.07858489872 -22.0370946346 0)
(-5.06308587463 -21.6950901638 0)
(-5.05850977076 -21.1732250007 0)
(-5.06580167183 -20.4748816268 0)
(-5.08578699737 -19.6073600764 0)
(-5.11898509208 -18.5822610433 0)
(-5.16536887315 -17.4157549068 0)
(-5.22406446093 -16.1286580561 0)
(-5.29300007395 -14.7462582289 0)
(-5.36853208625 -13.29780061 0)
(-5.44510161921 -11.8156003004 0)
(-5.51499879193 -10.3337458976 0)
(-5.56833519147 -8.88646333168 0)
(-5.59333052373 -7.50623143859 0)
(-5.57700310889 -6.22185364974 0)
(-5.50630106877 -5.05668183801 0)
(-5.36962630505 -4.02724195685 0)
(-5.15859587501 -3.14242593366 0)
(-4.86978077731 -2.4033808213 0)
(-4.50608642911 -1.80407157304 0)
(-4.07743362847 -1.33246687225 0)
(-3.60046301958 -0.972156471983 0)
(-3.09714696963 -0.704168277166 0)
(-2.59243405742 -0.508831723025 0)
(-2.11123348321 -0.367274100092 0)
(-1.67538608779 -0.262584041667 0)
(-1.3010364763 -0.180340736879 0)
(-0.997269904516 -0.108123625769 0)
(-0.765389467273 -0.0354731532954 0)
(-0.600527170157 0.0489806664614 0)
(-0.490042805275 0.157090437286 0)
(-0.424454455838 0.30287145584 0)
(-0.356611028236 0.532275342283 0)
(-0.36395866158 0.900038276805 0)
(0.409415420224 2.01245503807 0)
(-1.15041617128 2.45495355487 0)
(2.49661925224 -7.59248808552 0)
(-2.41996551067 -1.21013051024 0)
(-1.44339241522 -1.04457013889 0)
(-1.35336216687 -1.67292734021 0)
(-2.02431270317 -1.90102834119 0)
(-2.68934526643 -1.90931177619 0)
(-3.2521377414 -1.8117029978 0)
(-3.75164672766 -1.64126593184 0)
(-4.19004786965 -1.4255849643 0)
(-4.56457431015 -1.18793898297 0)
(-4.88264874684 -0.941863321525 0)
(-5.15503457819 -0.693298192344 0)
(-5.39072617488 -0.443834554034 0)
(-5.59649462433 -0.192690471822 0)
(-5.77763026407 0.0621594210366 0)
(-5.93837876482 0.323272458838 0)
(-6.08212349463 0.593309190387 0)
(-6.21153397768 0.874808106961 0)
(-6.32872444684 1.17007974389 0)
(-6.43539307355 1.48116152317 0)
(-6.53292559539 1.80980311845 0)
(-6.62246648833 2.15747199834 0)
(-6.70496823149 2.52537251457 0)
(-6.78122677009 2.91447581518 0)
(-6.85190848326 3.32555661779 0)
(-6.91757137971 3.75923690025 0)
(-6.97868157583 4.21603531199 0)
(-7.03562814108 4.69642478886 0)
(-7.08873086287 5.20089786833 0)
(-7.13825866372 5.73004273586 0)
(-7.1844074177 6.28462810195 0)
(-7.22737710613 6.86571185366 0)
(-7.26714787633 7.47473333865 0)
(-7.30412631955 8.11374658854 0)
(-7.33774893063 8.78545704751 0)
(-7.37226054149 9.49463373446 0)
(-7.4034786558 10.1846584339 0)
(-7.41925275067 10.7841453813 0)
(-7.41803094785 11.2866001578 0)
(-7.40245468593 11.6818370407 0)
(-7.37242383134 11.9604151767 0)
(-7.32609817759 12.1151209792 0)
(-7.26192160225 12.1408918395 0)
(-7.17886756507 12.0350671617 0)
(-7.07612535363 11.797889042 0)
(-6.95302146381 11.4329410939 1.46597390184e-27)
(-6.80913236153 10.9474616614 -1.47491342024e-27)
(-6.6444392172 10.3525319035 0)
(-6.45948910759 9.66309670402 0)
(-6.25557200096 8.89777099897 0)
(-6.03490031001 8.07838169811 0)
(-5.80075673398 7.2292169424 0)
(-5.5575561795 6.37596217037 0)
(-5.31076189617 5.54434359867 0)
(-5.0665901653 4.7585395583 0)
(-4.83145728634 4.03948835985 0)
(-4.61116027262 3.40327179232 0)
(-4.40985427287 2.85979657029 4.89762339773e-28)
(-4.22897669975 2.41199402349 -5.0535889294e-28)
(-4.06635457919 2.05571349748 0)
(-3.91578240355 1.78039805913 0)
(-3.76733791568 1.57050108026 0)
(-3.60859331495 1.40749828887 0)
(-3.42667926013 1.27223699454 0)
(-3.21091259405 1.14730808172 0)
(-2.95545253638 1.0191271015 0)
(-2.66132675019 0.879383174763 0)
(-2.3371759992 0.725706382684 0)
(-1.99832154535 0.561390890102 0)
(-1.66424906233 0.394250060515 0)
(-1.35470092898 0.235226003414 0)
(-1.08629796594 0.0963654126334 0)
(-0.868255955401 -0.00977851135542 0)
(-0.702435223007 -0.0700240215521 0)
(-0.578957229155 -0.0674508649154 0)
(-0.494658312989 0.0183844229639 0)
(-0.387212170723 0.249358908972 0)
(-0.406169522467 0.70076029261 0)
(0.734548032017 2.00902301049 0)
(-1.68388355415 2.36679595356 0)
(8.07742057228 -7.5794999731 0)
(-2.24283647141 -0.954470154165 0)
(-0.755196104492 -1.87534976602 0)
(-1.21856100568 -2.53167705456 0)
(-2.26650652463 -2.57856740678 0)
(-2.96395242498 -2.44308219667 0)
(-3.43042835201 -2.24170732723 0)
(-3.8005137408 -2.00963477285 0)
(-4.10203632433 -1.77834463866 0)
(-4.34482582606 -1.56765475189 0)
(-4.54340235389 -1.38530707701 0)
(-4.71047453114 -1.2329737294 0)
(-4.8540918559 -1.10998976362 0)
(-4.97900826033 -1.01480756646 0)
(-5.08822230225 -0.945659399014 0)
(-5.18374165427 -0.900938686623 0)
(-5.26693775532 -0.879371766976 0)
(-5.33877643727 -0.880045100964 0)
(-5.39998980147 -0.902362998885 0)
(-5.4511916086 -0.94598771212 0)
(-5.49294371047 -1.01077945251 0)
(-5.52578911223 -1.09674390515 0)
(-5.55026465948 -1.20398614331 0)
(-5.56690245254 -1.33267461848 0)
(-5.57622496141 -1.48301367754 0)
(-5.57873690335 -1.65522810729 0)
(-5.57491565766 -1.84955794043 0)
(-5.56520000321 -2.06626560804 0)
(-5.54998097038 -2.30565675209 0)
(-5.52958511638 -2.56810946373 0)
(-5.50427883546 -2.85413646686 -8.43592405816e-28)
(-5.47421016007 -3.16440969792 8.45526500365e-28)
(-5.43953059755 -3.4999348573 0)
(-5.39996425243 -3.86185882241 0)
(-5.35587404798 -4.25237685205 0)
(-5.30485716453 -4.67282892289 0)
(-5.25346993112 -5.05475080474 0)
(-5.20725564312 -5.37370933926 0)
(-5.16675769123 -5.61840393928 0)
(-5.13287547729 -5.78108739767 0)
(-5.10591563811 -5.85662185779 0)
(-5.08529722746 -5.84123585968 0)
(-5.07026184614 -5.73305353472 0)
(-5.06009865941 -5.53290534482 0)
(-5.05393208509 -5.24475041147 0)
(-5.05052642441 -4.87581730422 0)
(-5.04819784698 -4.43656034046 0)
(-5.04475726187 -3.94040790856 0)
(-5.03746159514 -3.40326658037 0)
(-5.02300530448 -2.84277747316 0)
(-4.99759420617 -2.27734760696 0)
(-4.95713222315 -1.72500182832 0)
(-4.8975422152 -1.2021361758 0)
(-4.81522011796 -0.72228959423 0)
(-4.70758696013 -0.295095467484 0)
(-4.57365153371 0.0744119568924 0)
(-4.4144450577 0.385961204241 0)
(-4.23315715502 0.64356897367 0)
(-4.03481821347 0.854406478279 0)
(-3.82545795331 1.02713412457 0)
(-3.61082130017 1.16995283317 0)
(-3.39491344163 1.2887398781 0)
(-3.17880335243 1.38566139866 0)
(-2.96017426785 1.45863291713 0)
(-2.73399006394 1.50183322316 0)
(-2.49433902348 1.50732851972 0)
(-2.23711019593 1.46749723208 0)
(-1.96268704538 1.37783314406 0)
(-1.67761895621 1.23945548173 0)
(-1.3946815115 1.06036056411 0)
(-1.1300302761 0.855806429526 0)
(-0.900035134946 0.645433649548 0)
(-0.714569543753 0.454460545106 0)
(-0.577695755702 0.306139598272 0)
(-0.476164816298 0.227724504326 0)
(-0.407483387567 0.24803371652 0)
(-0.294623575213 0.430407126857 0)
(-0.350101211563 0.859298866131 0)
(1.11824460316 2.16178689414 0)
(-2.20551043156 2.32529223067 0)
(12.5741470525 -7.40232188696 0)
(-4.01169218471 -1.29963384259 0)
(-0.941594787525 -3.02644012611 0)
(-1.61982542823 -3.39786300516 0)
(-2.67332207847 -3.19125981565 0)
(-3.18434948689 -2.89704421874 0)
(-3.47463940165 -2.57447612225 0)
(-3.70379027757 -2.25046689896 0)
(-3.89168235444 -1.95092079041 0)
(-4.0464316234 -1.68532628365 0)
(-4.18063676701 -1.45262630863 0)
(-4.30317009142 -1.24870974951 0)
(-4.41811853229 -1.06906846691 0)
(-4.52697123222 -0.909370094576 0)
(-4.63013572073 -0.765674536322 0)
(-4.72756409088 -0.634546681094 0)
(-4.8190260167 -0.513049741865 0)
(-4.90427224877 -0.398663541809 0)
(-4.98313386336 -0.289187246621 0)
(-5.05556698455 -0.182655458062 0)
(-5.12166000018 -0.0772754695201 0)
(-5.18161974327 0.0286185563915 0)
(-5.23574806819 0.136597310366 0)
(-5.28441486645 0.248159202597 0)
(-5.32803139368 0.364745768125 0)
(-5.36702569574 0.487754073073 0)
(-5.40182155321 0.618547081656 0)
(-5.43282058327 0.758465919062 0)
(-5.46038913899 0.908846132614 0)
(-5.4848463457 1.07103819957 0)
(-5.50646180563 1.24644540118 0)
(-5.52544487464 1.43654826288 0)
(-5.54197360148 1.64302344766 0)
(-5.5561900422 1.86765883632 0)
(-5.56826832786 2.11296657296 0)
(-5.57794558831 2.37719437519 0)
(-5.579536841 2.6117556056 0)
(-5.57103914382 2.80920063442 0)
(-5.55181809227 2.96326802642 0)
(-5.5217137574 3.06867479171 0)
(-5.48068776097 3.12140859902 0)
(-5.42856206322 3.11969253534 0)
(-5.36523325268 3.06437318334 0)
(-5.29092678906 2.95890974178 0)
(-5.20624174879 2.80931204875 0)
(-5.11211385362 2.62398714025 0)
(-5.00979102417 2.41336757712 0)
(-4.90079740185 2.18929870296 0)
(-4.7868436973 1.96422924196 0)
(-4.66967242941 1.75027340822 0)
(-4.55084284287 1.55823002296 0)
(-4.43147185309 1.39666708226 0)
(-4.31196448899 1.27119950236 0)
(-4.19179378562 1.18408666958 0)
(-4.06941076231 1.13425482452 0)
(-3.94236597916 1.11778665864 0)
(-3.8076898582 1.12883395318 0)
(-3.66250322727 1.16078945759 0)
(-3.50472543938 1.20746014388 0)
(-3.33365196373 1.26391864827 0)
(-3.15013972569 1.32675672289 0)
(-2.95622347991 1.39358055645 0)
(-2.75418958875 1.46183115053 0)
(-2.54542174193 1.52726383855 0)
(-2.32956853695 1.58264469038 0)
(-2.10463586956 1.61735036276 0)
(-1.86831066637 1.61833924756 0)
(-1.62041590978 1.57282237402 0)
(-1.36532067837 1.47204108927 0)
(-1.11350218152 1.31481160024 0)
(-0.879309477289 1.1126487194 0)
(-0.680705688241 0.88566665551 0)
(-0.525778024333 0.665638445879 0)
(-0.415838235875 0.489169744144 0)
(-0.331088731735 0.396910492011 0)
(-0.26585710996 0.422945466373 0)
(-0.130565763356 0.61646125497 0)
(-0.168161784306 1.07096937025 0)
(1.60381764176 2.30821114123 0)
(-2.70737621377 2.23728740338 0)
(17.3905290793 -7.03780048886 0)
(-6.51891487139 -2.0450546931 0)
(-0.985225457336 -4.28765225354 0)
(-1.91560383331 -4.12420399264 0)
(-2.8407392398 -3.63253980762 0)
(-3.13353990696 -3.18848925786 0)
(-3.28009948188 -2.77330731269 0)
(-3.41185588923 -2.39996742013 0)
(-3.52898638205 -2.0804353257 0)
(-3.63504075018 -1.8113068832 0)
(-3.73825924802 -1.58393648974 3.2902300852e-28)
(-3.84255612474 -1.3905240713 -3.26992003044e-28)
(-3.94810712226 -1.22482682694 0)
(-4.05360780045 -1.08187974935 0)
(-4.15739041183 -0.957828610564 0)
(-4.25780798243 -0.849785841532 0)
(-4.35339542109 -0.755649310135 0)
(-4.44295896945 -0.673915329437 0)
(-4.52561070987 -0.603518866496 0)
(-4.60075969677 -0.543713013252 0)
(-4.66807850836 -0.493982089354 0)
(-4.72746022237 -0.453980804799 0)
(-4.7789732481 -0.423490841692 0)
(-4.82281758052 -0.402390853559 0)
(-4.85928417418 -0.390634919835 0)
(-4.88871864173 -0.388238450153 0)
(-4.91148955031 -0.395268648766 0)
(-4.92796142524 -0.411840314551 0)
(-4.93847180366 -0.438115630835 0)
(-4.94331295567 -0.474309343949 0)
(-4.94271512092 -0.520700965135 0)
(-4.93683876038 -0.577651960232 9.654776518e-28)
(-4.92575136269 -0.645645436228 -9.70776759943e-28)
(-4.90945202213 -0.725311014547 0)
(-4.88780907714 -0.817587786361 0)
(-4.86130290049 -0.916374051452 0)
(-4.83373588268 -0.996494046639 0)
(-4.80582274637 -1.05244730352 0)
(-4.7776357655 -1.07947337362 0)
(-4.749168659 -1.07409027445 0)
(-4.72024939376 -1.03451165239 0)
(-4.69033292472 -0.960707086068 0)
(-4.65851772503 -0.854407193246 0)
(-4.62368429328 -0.719135904476 0)
(-4.58456981556 -0.560083138668 0)
(-4.53978800887 -0.383738912178 0)
(-4.4878721229 -0.197339871739 0)
(-4.42736414932 -0.00820597544884 0)
(-4.35693679824 0.176954592938 0)
(-4.27553206601 0.352681935625 0)
(-4.18249865843 0.515241862711 0)
(-4.07769697397 0.662857523678 0)
(-3.96152962498 0.795638130837 0)
(-3.83485970956 0.91520189516 0)
(-3.69880441907 1.02405138493 0)
(-3.55443818594 1.12483368172 0)
(-3.40249191154 1.21966659149 0)
(-3.24317302519 1.30972178066 0)
(-3.07621317988 1.39519294604 0)
(-2.90117303649 1.47563219028 0)
(-2.71788481193 1.55048117337 0)
(-2.52680322295 1.6194359002 0)
(-2.32898217551 1.68231129938 0)
(-2.12560032669 1.73815440862 0)
(-1.91720173395 1.78370463954 0)
(-1.70325266256 1.81190709106 0)
(-1.48269538782 1.81120175449 0)
(-1.2558322341 1.76665898908 0)
(-1.02630600042 1.66479679791 0)
(-0.80613265839 1.49811455227 0)
(-0.608612293261 1.27195535722 0)
(-0.450468475535 1.01091581042 0)
(-0.337686034081 0.760680486681 0)
(-0.266145459263 0.568153154951 0)
(-0.19058298295 0.482539188852 0)
(-0.0829536711746 0.54325729114 0)
(0.126181721752 0.783709814559 0)
(0.263697039198 1.2847744104 0)
(2.03687350108 2.33941511822 0)
(-3.06236741152 2.00896975619 0)
(22.8398784411 -6.77886428036 0)
(-9.64499287104 -3.20767659913 0)
(-0.675750620463 -5.5013958427 0)
(-2.05587254892 -4.63633186006 0)
(-2.77889992986 -3.91810515743 0)
(-2.89394039534 -3.36981388177 0)
(-2.96289906054 -2.89924480708 0)
(-3.05245943239 -2.50458719813 0)
(-3.1446612309 -2.18076631091 0)
(-3.24010705877 -1.91323493831 0)
(-3.34313932678 -1.68809650197 0)
(-3.45385531597 -1.49520726523 0)
(-3.56996334073 -1.32708817508 0)
(-3.68859172725 -1.17819109119 0)
(-3.80697744659 -1.04448337619 0)
(-3.92267819712 -0.923095919916 0)
(-4.03366356664 -0.812006549291 0)
(-4.13835860428 -0.70976975802 0)
(-4.23563751068 -0.615307230415 0)
(-4.32478047119 -0.527759179937 0)
(-4.40541560443 -0.446383735615 0)
(-4.47745871176 -0.370489750955 0)
(-4.54105500588 -0.299393136692 0)
(-4.59652362421 -0.232389062425 0)
(-4.64430600823 -0.168735811328 0)
(-4.68491900815 -0.107645922485 0)
(-4.71891383935 -0.0482825667579 0)
(-4.7468403617 0.0102416946202 0)
(-4.76921894988 0.0688645569761 0)
(-4.78651447639 0.128575429709 0)
(-4.79912547131 0.190416344896 0)
(-4.80735426568 0.255491171059 0)
(-4.81144537684 0.324966633741 0)
(-4.8114616254 0.400115111683 0)
(-4.80754361046 0.482271999876 0)
(-4.79890853393 0.567103437801 0)
(-4.78391807854 0.6437907794 0)
(-4.7617448147 0.709894202596 0)
(-4.73194749249 0.763541360996 0)
(-4.69428170474 0.80362639477 0)
(-4.64866266096 0.829911988966 0)
(-4.59511527849 0.843220329032 0)
(-4.53377915639 0.845568082559 0)
(-4.46496035691 0.840082108807 0)
(-4.38913811966 0.830715200383 8.83656507488e-28)
(-4.30689986859 0.821840556505 -8.81553127891e-28)
(-4.21883926294 0.817779644745 0)
(-4.1254469897 0.822322625635 0)
(-4.02700692085 0.838321396734 0)
(-3.9235150458 0.867431706345 0)
(-3.81464800265 0.910052648647 0)
(-3.69980425265 0.965468083744 0)
(-3.57822178801 1.03215143094 0)
(-3.44914764849 1.10815037324 0)
(-3.31200758116 1.19144358726 0)
(-3.16651185685 1.28015822167 0)
(-3.0126488962 1.37259125021 0)
(-2.85057372787 1.46704748097 0)
(-2.68045729854 1.56163238909 0)
(-2.50242492398 1.65413110047 0)
(-2.31664264529 1.74216253926 0)
(-2.12356373364 1.82346523505 0)
(-1.92408408658 1.89615650492 0)
(-1.71945363291 1.95842289532 0)
(-1.51081032067 2.00736062482 0)
(-1.29883098501 2.0369329043 0)
(-1.08355557664 2.03608568831 0)
(-0.867710173005 1.9885348794 0)
(-0.657022876941 1.87493985129 0)
(-0.464637356191 1.68225394346 0)
(-0.307948303661 1.42111560006 0)
(-0.212280395176 1.11744342268 0)
(-0.153799811115 0.828145268973 0)
(-0.0883584714542 0.634680001202 0)
(0.0527230563324 0.603152848531 0)
(0.289471970749 0.741864992082 0)
(0.61419701519 1.03736503769 0)
(0.954329834265 1.50403358723 0)
(1.88160934189 2.14059128431 0)
(-2.79362872269 1.64658492109 0)
(28.8876965092 -6.5931459367 0)
(-13.3679124462 -4.60589738235 0)
(0.117916157833 -6.48288412903 0)
(-2.08851634059 -4.90673400045 0)
(-2.56086362639 -4.08204885608 0)
(-2.57234737012 -3.4769675955 0)
(-2.61994151657 -2.98293649175 0)
(-2.70152896515 -2.58864266627 0)
(-2.79274899861 -2.27421250513 0)
(-2.89438422328 -2.01803463766 0)
(-3.00827064571 -1.80330638847 0)
(-3.13216507979 -1.61875345895 0)
(-3.26252299669 -1.4563113346 0)
(-3.39564926994 -1.31040055413 0)
(-3.5281839561 -1.17731777734 0)
(-3.65724765406 -1.05471191059 0)
(-3.78049902416 -0.941170406193 0)
(-3.89615783576 -0.835882603637 0)
(-4.00297181038 -0.738390915907 0)
(-4.10014953068 -0.648427653818 0)
(-4.18728948329 -0.565811870482 0)
(-4.2643145714 -0.490385522895 0)
(-4.33140996626 -0.421974902699 0)
(-4.38896190429 -0.360369776692 0)
(-4.43749791736 -0.305314833366 0)
(-4.47763068062 -0.256509829961 0)
(-4.51000722989 -0.213615041795 0)
(-4.53526479516 -0.176260744746 0)
(-4.55399468222 -0.144058316813 0)
(-4.56671222057 -0.116612272995 0)
(-4.57383520341 -0.0935336324095 0)
(-4.57566253456 -0.0744554653786 0)
(-4.57237184807 -0.0590542500843 1.13576527163e-27)
(-4.56401262584 -0.0470714672319 -1.14589330751e-27)
(-4.55061341285 -0.0383363653836 0)
(-4.53235581351 -0.0288752913366 0)
(-4.5098284275 -0.0131394570425 0)
(-4.48287762462 0.0109559051672 0)
(-4.45114580846 0.0450016524427 0)
(-4.41418371271 0.089883456965 0)
(-4.37145109697 0.145652468248 0)
(-4.32231891832 0.211516796889 0)
(-4.26611073064 0.285968407009 0)
(-4.2021842768 0.36699704955 0)
(-4.13001303991 0.452370822025 0)
(-4.04923962473 0.539965148825 0)
(-3.95970552591 0.628079801081 0)
(-3.8614648788 0.71566523944 0)
(-3.75477495997 0.802403321028 0)
(-3.64005180854 0.888630631027 0)
(-3.51779044769 0.975130467224 0)
(-3.38846608462 1.0628511187 0)
(-3.25244389474 1.15262649269 0)
(-3.1099279374 1.24497242915 0)
(-2.96096551653 1.34000603689 0)
(-2.80550306508 1.43747169087 0)
(-2.64345450751 1.53682465067 0)
(-2.47474850137 1.63724599423 0)
(-2.29930952826 1.73760857517 0)
(-2.11705313426 1.8363019973 0)
(-1.92789787917 1.93125538207 0)
(-1.73195532465 2.01996490476 0)
(-1.52967317069 2.09995439776 0)
(-1.32203788154 2.16867182095 0)
(-1.11004227804 2.22280930929 0)
(-0.894985880755 2.25635676213 0)
(-0.678357857733 2.25708344386 0)
(-0.464585907486 2.20407261493 0)
(-0.263558776873 2.07649946757 0)
(-0.108453708194 1.85384486963 0)
(-0.00716554364546 1.53542848895 0)
(0.0299833834464 1.18731225652 0)
(0.0865637393323 0.909970129169 0)
(0.244841557954 0.788899576414 0)
(0.549888428346 0.848818396009 0)
(0.950363115118 1.02763640175 0)
(1.32341061397 1.25453504292 0)
(1.51559537907 1.48721549106 0)
(1.3868236272 1.60977540276 0)
(-1.95111121952 1.14087534131 0)
(35.4217792238 -6.52068153402 0)
(-17.6395482657 -6.1381842791 0)
(1.45903513629 -7.17273811616 0)
(-2.12810989166 -5.00307587998 0)
(-2.26582837525 -4.19330432712 0)
(-2.25000116688 -3.55598532271 0)
(-2.30474025783 -3.0581999357 0)
(-2.39191832431 -2.67541986982 0)
(-2.49133737924 -2.37585542191 0)
(-2.60491582074 -2.13383983995 0)
(-2.73268336118 -1.93046955539 0)
(-2.87091021909 -1.75378526521 0)
(-3.01546175861 -1.5952245031 0)
(-3.16211634015 -1.44932129175 0)
(-3.30717743429 -1.31276734285 0)
(-3.44754851406 -1.18373047461 0)
(-3.58075708685 -1.06136329608 0)
(-3.70497067422 -0.945388470227 0)
(-3.81893181455 -0.835807729223 0)
(-3.92186824277 -0.732730484032 0)
(-4.01342353832 -0.636270796835 0)
(-4.09360301885 -0.546483853236 0)
(-4.16271926005 -0.463325799268 0)
(-4.22132899071 -0.386630282679 0)
(-4.27016373851 -0.316099693839 0)
(-4.31005994091 -0.25130626575 0)
(-4.34189360934 -0.191701177158 0)
(-4.36652292479 -0.136628366182 0)
(-4.38474366098 -0.0853406453236 0)
(-4.39725021305 -0.0370124575104 0)
(-4.40461504567 0.00924442396015 0)
(-4.40724722721 0.0543754906087 0)
(-4.4054286304 0.0993497429672 0)
(-4.39917344548 0.145192813713 0)
(-4.38853449163 0.192795271527 0)
(-4.3727135837 0.241059048437 0)
(-4.35103627923 0.288670171642 0)
(-4.32288787945 0.335560405593 0)
(-4.28768366645 0.381820268355 0)
(-4.24489145047 0.42774132982 0)
(-4.19405778381 0.473843020416 0)
(-4.13482600358 0.520871678528 0)
(-4.06695772927 0.56975808593 0)
(-3.99035741205 0.621515610155 0)
(-3.90507818632 0.677096237559 0)
(-3.81129130938 0.737255319596 0)
(-3.70923004168 0.802470072179 0)
(-3.59913767587 0.872927986915 0)
(-3.48124239332 0.948577156476 0)
(-3.355761541 1.02921428024 0)
(-3.22292234444 1.11457583457 0)
(-3.08298188582 1.20439354195 0)
(-2.93623198714 1.29839373961 0)
(-2.7829852525 1.39623998218 0)
(-2.6235433635 1.49746638335 0)
(-2.45816693382 1.60141702485 0)
(-2.28704106774 1.7072738693 0)
(-2.11026957303 1.8140195126 0)
(-1.92783207009 1.92050305274 0)
(-1.73960735955 2.0251389914 0)
(-1.54533397851 2.12604309995 0)
(-1.34489158444 2.22062676342 0)
(-1.13829545948 2.30615837484 0)
(-0.926035508921 2.37963685284 0)
(-0.708671608068 2.43778406367 0)
(-0.487415094473 2.47313020783 0)
(-0.262591389338 2.4731281372 0)
(-0.0503330142807 2.41166536382 0)
(0.137487040254 2.24966118894 0)
(0.238677177005 1.97135528328 0)
(0.285474463606 1.61283110398 0)
(0.339646838817 1.27862081457 0)
(0.525921603255 1.08099719114 0)
(0.902872224255 1.0582062533 0)
(1.40962675918 1.15040466881 0)
(1.83885238088 1.26122492695 0)
(1.95782590252 1.33570753158 0)
(1.66482914597 1.30912072402 0)
(0.938228928908 1.08684165781 0)
(-0.874167619299 0.731576646723 0)
(42.2493245641 -6.55194957305 0)
(-22.3671413778 -7.68832336413 0)
(3.36529445056 -7.55432007044 0)
(-2.29761798668 -5.00353905799 0)
(-1.93311265979 -4.29319047497 0)
(-1.96619926941 -3.62420871267 0)
(-2.03101315554 -3.13534456251 0)
(-2.12631806645 -2.76954366218 0)
(-2.23552194492 -2.48765088405 0)
(-2.36106601822 -2.26164265373 0)
(-2.50136460138 -2.07052128496 0)
(-2.65161074409 -1.90212920259 0)
(-2.8074429859 -1.74742214915 0)
(-2.96413705337 -1.6013399773 0)
(-3.11783713956 -1.46114166702 0)
(-3.26535261481 -1.32565917098 0)
(-3.40416789513 -1.19475138652 0)
(-3.53246786824 -1.06878735873 0)
(-3.64901003762 -0.94832660714 0)
(-3.75301536843 -0.833970622653 0)
(-3.84413379678 -0.726274808403 0)
(-3.92243204017 -0.625690742211 0)
(-3.98836134333 -0.532518735239 0)
(-4.04268996714 -0.446875786741 0)
(-4.08641245344 -0.368682991431 0)
(-4.12065203625 -0.297669373765 0)
(-4.14656763197 -0.233388909066 0)
(-4.16527528718 -0.175249105772 0)
(-4.17779140123 -0.122540426477 0)
(-4.18498671564 -0.0744613019353 0)
(-4.1875604663 -0.0301417875897 0)
(-4.18599147376 0.0113350851394 0)
(-4.18057195074 0.0508958902639 0)
(-4.17125715082 0.0894698518813 0)
(-4.15806480688 0.12786720935 0)
(-4.14027954114 0.168156787859 0)
(-4.11753095379 0.211989963053 0)
(-4.08911760363 0.260367554438 0)
(-4.05419500163 0.313977448269 0)
(-4.01186762825 0.373108906388 0)
(-3.96125214874 0.437621432503 0)
(-3.90154445918 0.506989543068 0)
(-3.83209474899 0.580436957627 0)
(-3.75248142735 0.657128390294 0)
(-3.66256463814 0.736356549927 0)
(-3.56249491304 0.817671651513 0)
(-3.45266693803 0.900929075141 0)
(-3.33363310854 0.986258490961 0)
(-3.20600697041 1.07397409521 0)
(-3.07038524234 1.16445849898 0)
(-2.92730245514 1.25805700259 0)
(-2.77722189088 1.35499966548 0)
(-2.62055237667 1.45536481055 0)