/*--------------------------------*- C++ -*----------------------------------*\
| =========                 |                                                 |
| \\      /  F ield         | OpenFOAM: The Open Source CFD Toolbox           |
|  \\    /   O peration     | Version:  v1806                                 |
|   \\  /    A nd           | Web:      www.OpenFOAM.com                      |
|    \\/     M anipulation  |                                                 |
\*---------------------------------------------------------------------------*/
FoamFile
{
    version     2.0;
    format      ascii;
    class       volVectorField;
    location    "300";
    object      Ua;
}
// * * * * * * * * * * * * * * * * * * * * * * * * * * * * * * * * * * * * * //

dimensions      [0 1 -1 0 0 0 0];


internalField   nonuniform List<vector> 
6400
(
(-0.553707137117 0.89519135745 0)
(-3.21226258694 3.55133015876 0)
(-5.24684478418 5.409230152 0)
(-6.67553398415 4.27037490318 0)
(-7.56760754078 2.68732037307 0)
(-7.80402625913 -1.55165301286 0)
(-8.73060050852 -4.58013994613 0)
(-9.40694088915 -6.92787712004 0)
(-9.88786324826 -9.32779748755 0)
(-10.272081542 -11.7681775089 0)
(-10.5909317939 -14.2485170349 0)
(-10.8544565332 -16.7611658549 0)
(-11.0701739444 -19.2957559803 0)
(-11.2457864162 -21.8429633463 0)
(-11.388139835 -24.3953201156 0)
(-11.5027995351 -26.9468536036 0)
(-11.5942613973 -29.4927578458 0)
(-11.666220823 -32.0292529244 0)
(-11.7217308343 -34.5535072696 0)
(-11.7632975753 -37.0635563848 0)
(-11.7929624606 -39.5582246841 0)
(-11.8123815944 -42.037052618 0)
(-11.8228972529 -44.50024055 0)
(-11.8255991484 -46.9485971482 0)
(-11.8213750859 -49.3835024693 0)
(-11.8109532764 -51.806872894 0)
(-11.7949372729 -54.2211414879 0)
(-11.773834698 -56.6292412631 0)
(-11.7480835933 -59.0346059646 0)
(-11.7180709802 -61.4411836209 0)
(-11.68417535 -63.8534729786 0)
(-11.6467819056 -66.2766605558 0)
(-11.6065138723 -68.7168216361 0)
(-11.5640342889 -71.1816902242 0)
(-11.5203487931 -73.6794725984 0)
(-11.4700278137 -76.2132802777 0)
(-11.4001359632 -78.7490292641 0)
(-11.2994731183 -81.228915863 0)
(-11.177550361 -83.4562964386 0)
(-11.043325772 -85.4013491986 0)
(-10.9030639714 -87.0523769514 0)
(-10.759724433 -88.403054487 0)
(-10.6145205053 -89.4497789024 0)
(-10.4681536028 -90.1909371913 0)
(-10.3212214698 -90.6266971672 0)
(-10.1742479117 -90.7588301871 0)
(-10.0276761005 -90.5905464579 0)
(-9.88189800692 -90.1263923599 0)
(-9.73729195264 -89.3722098509 0)
(-9.59425069219 -88.3351465136 0)
(-9.45320152797 -87.0236987564 0)
(-9.31462299605 -85.4477933317 0)
(-9.17906012382 -83.6188941738 0)
(-9.04713583516 -81.5501385689 0)
(-8.9195571326 -79.2564772994 0)
(-8.79711203443 -76.7548125309 0)
(-8.6806560721 -74.0640946277 0)
(-8.57108466877 -71.2053620484 0)
(-8.46929151952 -68.201678238 0)
(-8.37611143283 -65.077948362 0)
(-8.29225035673 -61.8605762472 0)
(-8.2182045712 -58.5769575918 0)
(-8.15417420897 -55.2547922527 0)
(-8.09997676942 -51.9212383125 0)
(-8.05496375774 -48.6019201647 0)
(-8.01795267973 -45.3198443461 0)
(-7.98715534457 -42.0942462306 0)
(-7.96016051183 -38.9394683576 0)
(-7.93381732251 -35.8638144796 0)
(-7.90441223114 -32.8687173073 0)
(-7.86711702657 -29.9475567712 0)
(-7.81738147263 -27.0861746322 0)
(-7.74739971888 -24.2601624588 0)
(-7.655807004 -21.4432843706 0)
(-7.52309761038 -18.5897042934 0)
(-7.37616787635 -15.689530541 0)
(-7.10133116483 -12.6042694086 0)
(-6.89342295565 -9.45127661142 0)
(-5.589044215 -5.07972902634 0)
(-4.46734076448 -0.807948515287 0)
(-1.74457379637 -1.85767154538 0)
(-1.35197656318 -3.60423928078 0)
(-3.15053345609 -5.23932210587 0)
(-4.25924971885 -4.78983462575 0)
(-5.85811994075 -3.23624833772 0)
(-7.37169963123 -1.50527299128 0)
(-8.63800859888 0.150105175335 0)
(-9.74107586628 1.66167571031 0)
(-10.7585959904 3.13893799391 0)
(-11.7089004577 4.62808438056 0)
(-12.5907089588 6.14518289728 0)
(-13.4016268606 7.69608682372 0)
(-14.1422259722 9.28295009828 0)
(-14.8155819044 10.9057219419 0)
(-15.4260044218 12.5630269152 0)
(-15.9781791022 14.2528724876 0)
(-16.4767764814 15.9730764543 0)
(-16.9262792157 17.7214657717 0)
(-17.3308849282 19.4959971303 0)
(-17.6944459348 21.2948394362 0)
(-18.0204460523 23.1164536887 0)
(-18.3120040471 24.9596495663 0)
(-18.5718942493 26.8236405877 0)
(-18.8025732623 28.7080798844 0)
(-19.0062092952 30.6130980486 0)
(-19.1847107441 32.5393261669 0)
(-19.3397530639 34.4879241983 0)
(-19.4728053675 36.4605995835 0)
(-19.5851497323 38.4596354546 0)
(-19.6779158111 40.487914987 0)
(-19.7520616961 42.5489598534 0)
(-19.8084868748 44.6469594035 0)
(-19.8477302426 46.7868057837 0)
(-19.8712485521 48.9739464836 0)
(-19.88124197 51.2139179489 0)
(-19.8967456762 53.5093722128 0)
(-19.9316916382 55.7580342056 0)
(-19.9714587264 57.8646047362 0)
(-19.9892748777 59.6916528977 0)
(-19.9768351823 61.2367722959 0)
(-19.9336443064 62.5013960711 0)
(-19.8599400467 63.4867151482 0)
(-19.7552917065 64.1950034082 0)
(-19.6189801112 64.629847758 0)
(-19.4502740979 64.7960509579 0)
(-19.2484513574 64.6995803509 0)
(-19.0127574817 64.3475557553 0)
(-18.7423966571 63.7482481278 0)
(-18.4365449625 62.9110683234 0)
(-18.0943728986 61.8465802028 0)
(-17.715069283 60.5665282964 0)
(-17.2978728347 59.0839010747 0)
(-16.8421138826 57.4130003692 0)
(-16.3472707954 55.5695249935 0)
(-15.8130428919 53.570626339 0)
(-15.2394405321 51.4349337731 0)
(-14.6268923362 49.1825005006 0)
(-13.9763641217 46.8346651969 0)
(-13.2894846957 44.4137859967 0)
(-12.5686655219 41.9428538796 0)
(-11.8172040642 39.4449634833 0)
(-11.0393530413 36.942672784 0)
(-10.240344156 34.4572594147 0)
(-9.4263522946 32.0079307349 0)
(-8.60439372693 29.6110192361 0)
(-7.78216343065 27.27923177 0)
(-6.96779984408 25.0209934439 0)
(-6.16964760234 22.8399459127 0)
(-5.39587767116 20.7346794015 0)
(-4.65441890196 18.6986734947 0)
(-3.95202789191 16.7208669313 0)
(-3.2957500981 14.7860654935 0)
(-2.68794481123 12.8781566561 0)
(-2.13931350604 10.9785423837 0)
(-1.63191902413 9.08660799341 0)
(-1.22559813102 7.18721010084 0)
(-0.750674301431 5.41208225634 0)
(-0.77361966341 3.67662422715 0)
(0.787678345063 3.7804348233 0)
(-2.12438220599 4.32311807093 0)
(-4.37817526841 -4.3847843534 0)
(-2.95593930444 -5.99566371672 0)
(-4.0423054194 -3.77219271632 7.90616224683e-29)
(-4.13955831381 -2.67027404388 -4.85533657413e-29)
(-4.38783597229 -2.05265522156 -1.48072958387e-29)
(-4.8497885181 -1.89236716513 1.20706228853e-29)
(-5.43390676201 -2.01098219115 3.25726680199e-29)
(-6.08128069331 -2.22441240108 -2.89596656358e-29)
(-6.7330191012 -2.47280930006 0)
(-7.34769896059 -2.7532856514 0)
(-7.90431583126 -3.07576126378 0)
(-8.39577338033 -3.44886691028 0)
(-8.82210795941 -3.87824935982 0)
(-9.186895578 -4.36741204297 0)
(-9.49541469591 -4.91824602246 0)
(-9.75351380529 -5.53131585959 0)
(-9.96694207714 -6.20615388295 0)
(-10.1410271596 -6.94158226946 0)
(-10.2805506473 -7.73599412699 0)
(-10.3897171696 -8.58758078753 0)
(-10.472168378 -9.49450307442 0)
(-10.5310224861 -10.4550326121 0)
(-10.5689262365 -11.4676604259 0)
(-10.5881110811 -12.531191803 0)
(-10.5904479705 -13.6448187333 0)
(-10.5774986196 -14.8081874468 0)
(-10.5505625018 -16.0214521142 0)
(-10.5107182898 -17.285328914 0)
(-10.4588628103 -18.6011515582 0)
(-10.395739247 -19.9709137815 -1.29426869432e-27)
(-10.3219755729 -21.3973893851 1.29314197978e-27)
(-10.2380663155 -22.8840648219 0)
(-10.1443375122 -24.4357074434 0)
(-10.0399856002 -26.0571667261 0)
(-9.92051941797 -27.7573952031 0)
(-9.77122734707 -29.5097790705 0)
(-9.60624021309 -31.1045143937 0)
(-9.45443666421 -32.4616740925 0)
(-9.32543533007 -33.5869455706 0)
(-9.21635313149 -34.4791349474 0)
(-9.12420245632 -35.1391901076 0)
(-9.04830404685 -35.5714200596 0)
(-8.98881940456 -35.7822990586 0)
(-8.945920197 -35.7798319922 0)
(-8.91967080332 -35.5733863344 0)
(-8.91002207008 -35.1735641959 0)
(-8.91675104199 -34.5920308404 0)
(-8.93938292554 -33.8413430935 0)
(-8.9771279184 -32.9348236314 0)
(-9.02882845956 -31.8864743447 0)
(-9.09291009363 -30.7109332557 0)
(-9.16733132843 -29.423450404 0)
(-9.24953467084 -28.0398818624 0)
(-9.33640042305 -26.5766664622 0)
(-9.42420783373 -25.0507766472 0)
(-9.50860903249 -23.4796028527 0)
(-9.58462365041 -21.8807655969 0)
(-9.64666372338 -20.2718256047 0)
(-9.68859833268 -18.6699046091 0)
(-9.70386750526 -17.0912137118 0)
(-9.68565004452 -15.5505300434 0)
(-9.62708670639 -14.0606482028 0)
(-9.5215498382 -12.6318681551 0)
(-9.36294693949 -11.2715605525 0)
(-9.14602965552 -9.98387002423 0)
(-8.86669309194 -8.76959194849 0)
(-8.52220287639 -7.62625590111 0)
(-8.11141197982 -6.5484641484 0)
(-7.63471646137 -5.52846713092 0)
(-7.09436286094 -4.55718327466 0)
(-6.49340247528 -3.62528389038 0)
(-5.83793350728 -2.72584495765 0)
(-5.12968545509 -1.85478716551 0)
(-4.38492980377 -1.02058143773 0)
(-3.57829744637 -0.22952797215 0)
(-2.80702374132 0.458959150482 0)
(-1.81442047025 1.1198395323 0)
(-1.54605254919 1.50156301111 0)
(1.38276457098 3.48118399234 0)
(-3.06553938944 4.61262130178 0)
(-4.59648027933 -6.72824473098 0)
(-5.47529896843 -2.9545974086 0)
(-3.90080141769 -2.08186769714 0)
(-3.12215710722 -2.64763473719 0)
(-3.57228500061 -2.95348150657 0)
(-4.35597391511 -3.02482052786 0)
(-5.17820349963 -2.95516862871 0)
(-5.98401045759 -2.76341778316 0)
(-6.73193304398 -2.47946889839 0)
(-7.39860558122 -2.14001662652 0)
(-7.98329581036 -1.771233894 0)
(-8.49499452165 -1.38717248946 0)
(-8.94394675991 -0.994000843019 0)
(-9.33956570402 -0.593327432262 0)
(-9.69023342507 -0.184108249169 0)
(-10.0031705615 0.2361834626 0)
(-10.2843628558 0.670780068471 0)
(-10.5386519545 1.1231186542 0)
(-10.7699181415 1.59654609795 0)
(-10.9812657231 2.0941721762 0)
(-11.175180183 2.61881859922 0)
(-11.3536567552 3.17303024153 0)
(-11.5183063587 3.75912186569 0)
(-11.6704414807 4.37924754256 0)
(-11.8111452204 5.03548043804 0)
(-11.941325016 5.72989926882 0)
(-12.0617564456 6.46467657224 0)
(-12.1731115833 7.24216649516 0)
(-12.2759948754 8.06499955466 0)
(-12.3709225114 8.9361592496 0)
(-12.4584265771 9.85911952781 0)
(-12.5387486427 10.8378282241 0)
(-12.6127260669 11.8771856012 0)
(-12.6798250712 12.9823684522 0)
(-12.7468362114 14.1621631648 0)
(-12.8084397188 15.3307015617 0)
(-12.8399872981 16.3266822179 0)
(-12.8385232536 17.1505572311 0)
(-12.810267527 17.7958502905 0)
(-12.7563056821 18.2613678697 0)
(-12.6752708379 18.5514920037 0)
(-12.5668802258 18.6738625194 0)
(-12.4318954031 18.638351932 0)
(-12.2713597184 18.4566625699 0)
(-12.0863893792 18.1418893083 0)
(-11.8782622743 17.7080491635 2.80124918499e-27)
(-11.6484956308 17.1696777338 -2.82562554135e-27)
(-11.3988711124 16.5415097438 0)
(-11.1314430543 15.838227264 0)
(-10.8485471031 15.0742630846 0)
(-10.5528027466 14.2636544298 0)
(-10.2471037704 13.4199341729 0)
(-9.93459079033 12.5560471956 0)
(-9.618601897 11.6842698889 0)
(-9.30259572608 10.8161193739 0)
(-8.99004158817 9.96223398623 0)
(-8.68427308596 9.13222318406 0)
(-8.38830419493 8.33448444394 1.75544331695e-27)
(-8.10461321517 7.57600639413 -1.7968318968e-27)
(-7.83490499798 6.86217658824 0)
(-7.57987103335 6.19663096409 0)
(-7.33897153757 5.5811729335 0)
(-7.11026911268 5.01579835514 0)
(-6.89034383769 4.49884167665 0)
(-6.67430941117 4.02725903027 0)
(-6.45595884706 3.59703658022 0)
(-6.22800154283 3.2037222528 0)
(-5.98249371344 2.8430298 0)
(-5.71113330586 2.51159298548 0)
(-5.40624338283 2.2076211993 0)
(-5.06009804037 1.93205119859 0)
(-4.66895736822 1.68852778633 0)
(-4.22393089077 1.48670452999 0)
(-3.73865901722 1.33521021184 0)
(-3.17106688513 1.2625662281 0)
(-2.65447932501 1.25078142115 0)
(-1.81378667486 1.43696861861 0)
(-1.96802154939 1.53943734046 0)
(1.68406313815 3.57243738387 0)
(-4.19697266739 4.38300420973 0)
(8.03349308213 -13.8183716268 0)
(-3.10793943969 -2.734611661 0)
(-1.68721556999 -2.617901579 0)
(-1.91586987199 -3.58549821594 0)
(-3.31497817629 -3.86780376865 0)
(-4.46555541667 -3.84261416469 0)
(-5.33252332029 -3.67492099267 0)
(-6.05320112291 -3.41063948197 0)
(-6.65514124476 -3.10083007867 0)
(-7.14826351556 -2.78918269434 0)
(-7.55380335888 -2.50117206909 0)
(-7.89283741161 -2.24892342655 0)
(-8.18053179874 -2.03727729605 0)
(-8.4273414922 -1.86724313075 0)
(-8.64083329257 -1.73788781901 0)
(-8.82658161595 -1.64746732269 0)
(-8.98864181079 -1.59407313754 0)
(-9.12994547493 -1.57596242511 0)
(-9.25263754429 -1.59170170932 0)
(-9.35832415692 -1.64021606485 0)
(-9.44823807089 -1.72078780763 0)
(-9.52334776424 -1.83303749161 0)
(-9.58443030333 -1.97689850212 0)
(-9.63212074527 -2.15259947735 0)
(-9.6669447662 -2.36065355611 0)
(-9.68934099246 -2.6018616968 0)
(-9.69967367799 -2.87732436894 0)
(-9.69824590406 -3.18846935093 0)
(-9.68529277802 -3.53708327069 0)
(-9.66101667761 -3.92537267352 0)
(-9.62549177859 -4.35598798928 -1.76836538563e-27)
(-9.5789275038 -4.83218411654 1.77479380428e-27)
(-9.5208680227 -5.3576062966 0)
(-9.4521298727 -5.93723024285 0)
(-9.36829728574 -6.57536875482 0)
(-9.28006524961 -7.15951452058 0)
(-9.20168292361 -7.632555217 0)
(-9.13429399561 -7.98373088987 0)
(-9.0787062067 -8.21129203908 0)
(-9.03470077635 -8.31901099361 0)
(-9.00055791017 -8.31279523606 0)
(-8.9743993723 -8.20059305619 0)
(-8.95463581411 -7.99249168381 0)
(-8.93965740113 -7.70016769549 0)
(-8.92761833447 -7.3361765291 0)
(-8.9164414662 -6.91336507537 0)
(-8.90387340869 -6.44441023889 0)
(-8.88751627727 -5.9414443851 0)
(-8.86485449599 -5.41576824439 0)
(-8.83329744629 -4.87764888154 0)
(-8.79024228139 -4.33620171919 0)
(-8.73315378852 -3.79933503403 0)
(-8.65965959889 -3.27374713396 0)
(-8.56765895465 -2.76495148183 0)
(-8.45544107788 -2.27732413541 0)
(-8.32180590069 -1.81415502041 0)
(-8.16617519036 -1.37770799611 0)
(-7.9886787788 -0.969282632706 0)
(-7.79019650957 -0.589293893054 0)
(-7.57233698784 -0.237370104368 0)
(-7.33733561101 0.0875130696583 0)
(-7.08786352982 0.386867330321 0)
(-6.82674780173 0.662489288905 0)
(-6.55662266141 0.916239390768 0)
(-6.27953463918 1.14981261701 0)
(-5.99656625717 1.36452285407 0)
(-5.70747231272 1.56112614598 0)
(-5.41053038769 1.7396667775 0)
(-5.10225133562 1.89943862049 0)
(-4.77810027827 2.03885422629 0)
(-4.43124974714 2.15590863129 0)
(-4.05783706547 2.24750568933 0)
(-3.64530965694 2.31315654572 0)
(-3.21024865763 2.34804818035 0)
(-2.69576915145 2.37013239365 0)
(-2.28119727871 2.34981679862 0)
(-1.46625166587 2.44376174518 0)
(-2.00581032043 2.33395388147 0)
(2.36822390072 4.25431094913 0)
(-5.33097001365 4.48629111882 0)
(15.9828976293 -13.3147670025 0)
(-4.79210773178 -2.08563642627 0)
(-1.36857217727 -4.04762845495 0)
(-2.17557642256 -5.05737334222 0)
(-3.93171176068 -5.06670511417 0)
(-4.97516077743 -4.81252646817 0)
(-5.6293618028 -4.43291800442 0)
(-6.13818537914 -3.98348425121 0)
(-6.54303360309 -3.52447014705 0)
(-6.86304650914 -3.09143478815 0)
(-7.12500288258 -2.69750180135 0)
(-7.34970699723 -2.34493109935 0)
(-7.54925238014 -2.03130565758 0)
(-7.73045444192 -1.75205493242 0)
(-7.89743330784 -1.50179637255 0)
(-8.05272397626 -1.27512541893 0)
(-8.19782246092 -1.06699211082 0)
(-8.33357467327 -0.87282262655 0)
(-8.4604586443 -0.688525327893 0)
(-8.57876222891 -0.510449486057 0)
(-8.68868370934 -0.335327812713 0)
(-8.79038613641 -0.16021201817 0)
(-8.88402679882 0.0175892492189 0)
(-8.96977287148 0.200570845415 0)
(-9.04780969435 0.39108652442 0)
(-9.11834493425 0.591404230706 0)
(-9.18161123824 0.803758948855 0)
(-9.23786711249 1.03041023365 0)
(-9.28739996332 1.27369814226 0)
(-9.33052039832 1.53611805882 0)
(-9.36758147428 1.82036960499 0)
(-9.39893275782 2.12951946147 0)
(-9.42510684409 2.46687536961 0)
(-9.44644331812 2.83680057896 0)
(-9.46378381176 3.23833086441 0)
(-9.46722062521 3.58811223891 0)
(-9.45290354049 3.87096963882 0)
(-9.42037724747 4.08183855824 0)
(-9.3707144886 4.21924962519 0)
(-9.3053814099 4.28470051633 0)
(-9.22550755906 4.28302590896 0)
(-9.13217613602 4.22177464184 0)
(-9.02678765185 4.11009984371 0)
(-8.91100958606 3.95791655041 0)
(-8.78659364985 3.77532393293 0)
(-8.65527318884 3.57212229562 0)
(-8.5187129194 3.35740106305 0)
(-8.37845201199 3.13923108505 0)
(-8.23583296174 2.92447624857 0)
(-8.09193082856 2.71870838035 0)
(-7.9474914991 2.52620996199 0)
(-7.80288201059 2.35004195949 0)
(-7.65805622503 2.19216341425 0)
(-7.51254086828 2.05358168184 0)
(-7.36544821493 1.93452415339 0)
(-7.21552090085 1.83461593086 0)
(-7.06121322522 1.7530608228 0)
(-6.90080912772 1.6888152175 0)
(-6.73257202696 1.64075525152 0)
(-6.55491342673 1.60782709479 0)
(-6.36655943999 1.58917835008 0)
(-6.16668685786 1.58425767149 0)
(-5.95499621794 1.59287722883 0)
(-5.73169506511 1.6152265145 0)
(-5.49736289526 1.65183488693 0)
(-5.25271947479 1.70347395491 0)
(-4.99824287465 1.77102090139 0)
(-4.73386870408 1.85522080307 0)
(-4.45831646942 1.95646941539 0)
(-4.16952153652 2.07430214417 0)
(-3.86242876972 2.20731638978 0)
(-3.5349841828 2.35143541187 0)
(-3.17250598051 2.50264052347 0)
(-2.79564586532 2.64726416488 0)
(-2.32842887255 2.79075711676 0)
(-1.99737018252 2.87766553316 0)
(-1.15455096802 3.05744399876 0)
(-2.05980138999 2.93143535491 0)
(3.20383492838 4.95252451983 0)
(-6.62346478565 4.70923611684 0)
(23.5738338148 -13.1636628532 0)
(-8.25488954461 -2.75203456019 0)
(-1.53733281955 -5.94035651337 0)
(-2.78007324067 -6.36147525924 0)
(-4.48410314799 -5.93446411295 0)
(-5.19226908368 -5.41813236133 0)
(-5.57314221943 -4.85104149079 0)
(-5.87315376382 -4.28092549664 0)
(-6.11041713642 -3.756357499 0)
(-6.29991224729 -3.29372690947 0)
(-6.46376074006 -2.89207396756 8.30106345724e-28)
(-6.615764093 -2.54573978046 -8.19737045871e-28)
(-6.76175461362 -2.2480573348 0)
(-6.90375031777 -1.99228638795 0)
(-7.0421628046 -1.77219818686 0)
(-7.17660200481 -1.58241324692 0)
(-7.30626153559 -1.41846901953 0)
(-7.43018068116 -1.27674553529 0)
(-7.54741052136 -1.15435204397 0)
(-7.65709859528 -1.04901801433 0)
(-7.75852055396 -0.958996180097 0)
(-7.85108409554 -0.882981736473 0)
(-7.9343200288 -0.820045668546 0)
(-8.00786838777 -0.769583988725 0)
(-8.0714630629 -0.731278595504 0)
(-8.1249174648 -0.705070996963 0)
(-8.16811048003 -0.691143918944 0)
(-8.20097658689 -0.689914855292 0)
(-8.22349044863 -0.702031828047 0)
(-8.23566882032 -0.728392378324 0)
(-8.23752956067 -0.770130760726 0)
(-8.22914449721 -0.828724784326 1.84362960019e-27)
(-8.21043162209 -0.905806525972 -1.85942126085e-27)
(-8.18160163365 -1.00385552774 0)
(-8.14311174575 -1.11350702179 0)
(-8.10327298612 -1.19173248793 0)
(-8.06361754387 -1.23352302836 0)
(-8.02430390231 -1.23601657103 0)
(-7.9854278733 -1.19915646266 0)
(-7.9468477092 -1.12563418257 0)
(-7.90783198867 -1.02003607705 0)
(-7.86719070313 -0.887996612032 0)
(-7.8236113967 -0.735679972747 0)
(-7.77582206181 -0.569348355611 0)
(-7.72260688248 -0.394924052531 0)
(-7.66282141584 -0.21762788284 0)
(-7.59544131463 -0.0417526823219 0)
(-7.51961182309 0.129437201482 0)
(-7.4346781229 0.293702770612 0)
(-7.34019749121 0.44974727667 0)
(-7.23593670609 0.597070454435 0)
(-7.1218550762 0.735785706066 0)
(-6.99807221044 0.866419753028 0)
(-6.8648219032 0.98971881384 0)
(-6.7223951214 1.10647505211 0)
(-6.57107794282 1.21739046921 0)
(-6.41109202695 1.32298516446 0)
(-6.24254798263 1.42355983609 0)
(-6.0654223243 1.51921180831 0)
(-5.8795680372 1.60990577498 0)
(-5.68476321648 1.69558895073 0)
(-5.4807945695 1.77634192911 0)
(-5.26755924652 1.85254290718 0)
(-5.04516148411 1.92502988752 0)
(-4.81395778359 1.99523042413 0)
(-4.57454743006 2.06523167939 0)
(-4.32758662712 2.13780293447 0)
(-4.07366729543 2.21624451246 0)
(-3.81263058417 2.30423585459 0)
(-3.54411253302 2.40527318734 0)
(-3.26464398652 2.52247997519 0)
(-2.97470974263 2.65642267546 0)
(-2.65862051714 2.80758000681 0)
(-2.34354226054 2.96454009081 0)
(-1.93326140524 3.13458788695 0)
(-1.70752377677 3.25223108532 0)
(-0.844645393669 3.4764514169 0)
(-2.18786615793 3.32828573457 0)
(4.10990436861 5.52128328573 0)
(-8.06903184102 4.87559400924 0)
(31.4176554641 -12.8004991703 0)
(-12.5445409175 -4.0102443053 0)
(-1.28005925724 -7.92908144618 0)
(-3.1550633611 -7.4624037131 0)
(-4.63801362118 -6.61503799294 0)
(-5.01581920538 -5.8704041631 0)
(-5.21014642572 -5.15473764211 0)
(-5.38888376762 -4.50196297961 0)
(-5.53841647925 -3.93686124499 0)
(-5.66901195478 -3.45461177579 0)
(-5.7964225564 -3.04255429431 0)
(-5.92759678964 -2.68901737428 0)
(-6.06361530327 -2.383926 0)
(-6.20342774603 -2.11854789195 0)
(-6.34528150841 -1.88552360069 0)
(-6.48718065282 -1.6788245375 0)
(-6.62713238642 -1.49357218043 0)
(-6.76330823892 -1.32581638183 0)
(-6.89412578701 -1.17233736232 0)
(-7.01827156098 -1.03048446437 0)
(-7.1346911576 -0.89804884643 0)
(-7.24256452981 -0.773162863204 0)
(-7.34127664138 -0.65422207624 0)
(-7.43038866393 -0.539823416667 0)
(-7.50961201465 -0.428716518598 0)
(-7.57878664621 -0.31976231479 0)
(-7.63786219674 -0.21189807966 0)
(-7.68688599242 -0.104102852377 0)
(-7.72598514687 0.00463339635206 0)
(-7.75537684626 0.11534927558 0)
(-7.7753102935 0.229142751709 0)
(-7.78621215171 0.347243691755 0)
(-7.78829488558 0.471042872646 0)
(-7.78264917775 0.602270494926 0)
(-7.76781019232 0.731917568214 0)
(-7.74233915598 0.843288913903 0)
(-7.70589095945 0.934073522986 0)
(-7.65903015601 1.00384488365 0)
(-7.60272560848 1.05383141299 0)
(-7.53812511694 1.08637861163 0)
(-7.46633806247 1.10464586409 0)
(-7.38836097355 1.11236222083 0)
(-7.30512508142 1.11344731022 0)
(-7.21750441758 1.11161018543 0)
(-7.12624820326 1.1100695266 1.64870304459e-27)
(-7.03190617922 1.11141068203 -1.6581636641e-27)
(-6.93478922045 1.11754308369 0)
(-6.83495904974 1.12973061485 0)
(-6.73223433477 1.14867886742 0)
(-6.62621049987 1.17465671082 0)
(-6.51629487664 1.20762952715 0)
(-6.40175505298 1.24738176179 0)
(-6.28177580043 1.29361530313 0)
(-6.15551808938 1.346013541 0)
(-6.0221739807 1.40426948948 0)
(-5.88101107614 1.46807905225 0)
(-5.73140175182 1.5371092283 0)
(-5.57283498856 1.61095144463 0)
(-5.40491260069 1.68907797795 0)
(-5.22733708354 1.77081720535 0)
(-5.03990229009 1.85536517166 0)
(-4.84249892742 1.9418492913 0)
(-4.63514414964 2.02944345204 0)
(-4.41803490495 2.11754141736 0)
(-4.19159892284 2.20596221215 0)
(-3.95655487369 2.29514482131 0)
(-3.71382448187 2.38637378494 0)
(-3.46457553832 2.48175901586 0)
(-3.20958685282 2.58427833416 0)
(-2.95005431036 2.69726669858 0)
(-2.68416923439 2.82430105491 0)
(-2.41569816874 2.96670397599 0)
(-2.12914400257 3.12603752657 0)
(-1.86149991483 3.29090333746 0)
(-1.497243334 3.47010900338 0)
(-1.38051810582 3.59042076294 0)
(-0.491412386151 3.82590736418 0)
(-2.35943081593 3.61692574481 0)
(5.11855740832 5.98530660068 0)
(-9.63056474136 4.97202453389 0)
(39.9205302089 -12.5582856991 0)
(-17.5810792586 -5.81150769721 0)
(-0.47883893857 -9.79213996441 0)
(-3.35955600434 -8.2342639786 0)
(-4.49775709441 -7.05429166425 0)
(-4.61557273801 -6.13698216749 0)
(-4.71511574277 -5.32259473408 0)
(-4.83898643224 -4.62947668434 0)
(-4.95279800389 -4.05413897014 0)
(-5.06557825515 -3.57432520998 0)
(-5.18754342869 -3.16983958811 0)
(-5.32067605571 -2.82536591861 0)
(-5.46322919891 -2.52882467614 0)
(-5.61248770124 -2.27053890218 0)
(-5.76552510116 -2.04289872877 0)
(-5.91946677388 -1.84002241417 0)
(-6.07166923822 -1.65738972257 0)
(-6.2198234488 -1.49151897201 0)
(-6.36198675887 -1.3397125127 0)
(-6.49657090935 -1.19986529755 0)
(-6.62230894567 -1.07032348461 0)
(-6.73821448559 -0.949782210005 0)
(-6.8435406736 -0.837212228973 0)
(-6.93774248279 -0.731808236386 0)
(-7.0204441107 -0.632951959503 0)
(-7.09141159287 -0.540185916845 0)
(-7.15053034477 -0.453194689716 0)
(-7.19778753526 -0.371790240505 0)
(-7.23325631883 -0.295904682064 0)
(-7.25708980688 -0.225577828031 0)
(-7.26950093633 -0.160966827513 0)
(-7.27079833012 -0.102312704765 0)
(-7.26130971532 -0.0500119822945 1.96446274458e-27)
(-7.24171928014 -0.00446372452296 -1.99320303399e-27)
(-7.21277765401 0.0413591475855 0)
(-7.17679956115 0.0935094188757 0)
(-7.13423328363 0.153169066877 0)
(-7.08540019825 0.220460536113 0)
(-7.0305841556 0.294556509253 0)
(-6.96997999711 0.373909622152 0)
(-6.90366744327 0.45659697608 0)
(-6.83164092202 0.540703063864 0)
(-6.75389074522 0.624593265297 0)
(-6.6704722483 0.707051266687 0)
(-6.58152255995 0.787332327175 0)
(-6.48724231894 0.865161838746 0)
(-6.38786789668 0.940681542305 0)
(-6.28363984891 1.01435395465 0)
(-6.17476441607 1.08684628405 0)
(-6.0613711064 1.15891603325 0)
(-5.94347371538 1.23131249316 0)
(-5.82094260844 1.30470288096 0)
(-5.69349310157 1.37962564882 0)
(-5.56069288266 1.45647039427 0)
(-5.42198819073 1.53547917435 0)
(-5.27674640343 1.61676134762 0)
(-5.12430837052 1.70031637433 0)
(-4.96404294448 1.78605389775 0)
(-4.79539347447 1.87380945539 0)
(-4.61791068038 1.96335370755 0)
(-4.43127152705 2.05439782063 0)
(-4.23528692362 2.14661919649 0)
(-4.02991424405 2.23970007786 0)
(-3.81528150401 2.33343529196 0)
(-3.59172578306 2.42787964312 0)
(-3.3598721999 2.52349011924 0)
(-3.12057969242 2.62148846403 0)
(-2.87510476546 2.72381534111 0)
(-2.6245658669 2.83335887641 0)
(-2.37108066273 2.95336114757 0)
(-2.11382293142 3.08748230688 0)
(-1.85951757674 3.23701873874 0)
(-1.59273282339 3.40325365735 0)
(-1.36209882004 3.57344425388 0)
(-1.03250350276 3.7563791196 0)
(-1.02229514626 3.86997102962 0)
(-0.0888397946582 4.10265368437 0)
(-2.56747891468 3.81278545692 0)
(6.2763227277 6.36936706711 0)
(-11.3100678697 5.01378094002 0)
(49.0720252991 -12.4034915787 0)
(-23.3175921472 -7.9208715839 0)
(0.9706284089 -11.3234071496 0)
(-3.46366960251 -8.68221896287 0)
(-4.15353736875 -7.33510142616 0)
(-4.12109512297 -6.30946509155 0)
(-4.20003574801 -5.44241038888 0)
(-4.31058344568 -4.73856488385 0)
(-4.41900493536 -4.1687619966 0)
(-4.53613998845 -3.69963024895 0)
(-4.66813652165 -3.30681835455 0)
(-4.81407382951 -2.97266549904 0)
(-4.970843564 -2.68369815454 0)
(-5.13493349343 -2.42963256771 0)
(-5.30282857604 -2.20276497345 0)
(-5.47122527948 -1.99738951172 0)
(-5.63718805218 -1.80928256246 0)
(-5.79821820358 -1.63529454135 0)
(-5.95225561897 -1.47304528506 0)
(-6.0976455795 -1.32070349128 0)
(-6.23309150418 -1.17683125507 0)
(-6.35760463985 -1.04027636191 0)
(-6.47045646426 -0.910098932909 0)
(-6.57113661881 -0.785520872868 0)
(-6.65931740356 -0.665890840015 0)
(-6.73482436443 -0.55065775006 0)
(-6.79761291384 -0.439351352259 0)
(-6.84774960579 -0.331562068024 0)
(-6.88539662066 -0.226931229798 0)
(-6.91080824253 -0.125119566863 0)
(-6.92429984258 -0.0258302290395 0)
(-6.92633550483 0.0713050645975 0)
(-6.91725709938 0.16649105985 0)
(-6.89808198204 0.260364122665 0)
(-6.86786913009 0.34903774741 0)
(-6.82744003243 0.431188674602 0)
(-6.77719557008 0.506830706144 0)
(-6.71783903505 0.57653883008 0)
(-6.65021898263 0.64127481805 0)
(-6.57520379852 0.702189430423 0)
(-6.4936036829 0.760456405747 0)
(-6.40612842787 0.817166917954 0)
(-6.3133797482 0.873263221787 0)
(-6.21585980671 0.929498988233 0)
(-6.11397437319 0.986440021093 0)
(-6.00802950383 1.0445069271 0)
(-5.89823183458 1.10403925035 0)
(-5.78469411841 1.16535601638 0)
(-5.66744088631 1.22879763855 0)
(-5.54640945781 1.2947425217 0)
(-5.42144638494 1.36359783045 0)
(-5.29230123296 1.43576833303 0)
(-5.15862130024 1.51161064496 0)
(-5.01995095756 1.59138329325 0)
(-4.87573954137 1.67520301328 0)
(-4.72536265533 1.76301194622 0)
(-4.56815646091 1.85457093868 0)
(-4.40346549282 1.94946977796 0)
(-4.23069454271 2.04716283297 0)
(-4.04935728676 2.14701558905 0)
(-3.85911582264 2.24835178553 0)
(-3.65979922724 2.35053114816 0)
(-3.45142613307 2.45297530803 0)
(-3.2341997914 2.55528630719 0)
(-3.00852351901 2.65739125833 0)
(-2.77507055063 2.75960096835 0)
(-2.53479282212 2.86306328483 0)
(-2.28897737438 2.96954754798 0)
(-2.0388886903 3.08199197092 0)
(-1.78729407116 3.20347479204 0)
(-1.53394342482 3.33806061859 0)
(-1.28842579038 3.4866794923 0)
(-1.03539530738 3.64940244846 0)
(-0.836510474322 3.8117228099 0)
(-0.53521012957 3.98242517173 0)
(-0.631819659503 4.07519226403 0)
(0.359675637454 4.28022681077 0)
(-2.8283610127 3.9169651528 0)
(7.64923130093 6.67520063002 0)
(-13.1207336632 4.98639377354 0)
(58.7502441416 -12.3747085498 0)
(-29.6762774235 -10.2138753904 0)
(3.09402155093 -12.4562489015 0)
(-3.5994937329 -8.88819706154 0)
(-3.70498688649 -7.53266155878 0)
(-3.63498842521 -6.43279722778 0)
(-3.72947295302 -5.54135561786 0)
(-3.84172164828 -4.84208762791 0)
(-3.95637212054 -4.28516791752 0)
(-4.08539585528 -3.83118762834 0)
(-4.23170490772 -3.45311339029 0)
(-4.39269685439 -3.13138398332 0)
(-4.564506547 -2.85148320675 0)
(-4.74310764585 -2.60282157818 0)
(-4.92460568567 -2.37784120923 0)
(-5.10545447769 -2.17121284863 0)
(-5.28258701395 -1.97918751502 0)
(-5.45344935225 -1.79911190698 0)
(-5.61597485865 -1.62908077856 0)
(-5.76853229381 -1.46769596129 0)
(-5.90986622551 -1.31390453404 0)
(-6.03903873391 -1.16689368516 0)
(-6.15537695901 -1.02602376571 0)
(-6.25842777463 -0.890786379312 0)
(-6.34792049637 -0.760777818766 0)
(-6.42373512216 -0.635681474953 0)
(-6.48587948731 -0.515256457864 0)
(-6.53446428401 -0.399325831522 0)
(-6.56969964352 -0.287776789064 0)
(-6.59185368108 -0.180533800421 0)
(-6.6013155615 -0.0776117151713 0)
(-6.59841380353 0.0210431174124 0)
(-6.58387134972 0.115112888466 0)
(-6.5578164319 0.205268639796 0)
(-6.52128175487 0.293524889744 0)
(-6.47486132015 0.380304762753 0)
(-6.4189876865 0.465717285312 0)
(-6.35418956063 0.549658799594 0)
(-6.28104327897 0.631866558702 0)
(-6.20012810612 0.71202368703 0)
(-6.11201658485 0.789870750883 0)
(-6.01727562078 0.86529671274 0)
(-5.91646831994 0.938387020476 0)
(-5.81015223778 1.00942242191 0)
(-5.69886615632 1.07884535199 0)
(-5.58310520414 1.14721754481 0)
(-5.46329179518 1.2151817438 0)
(-5.33974974839 1.28343070817 0)
(-5.21268364617 1.35268273476 0)
(-5.08216401229 1.4236610473 0)
(-4.94811881528 1.49707255092 0)
(-4.81033200345 1.57358260532 0)
(-4.66844902239 1.65378172999 0)
(-4.52198906615 1.73814604497 0)
(-4.37036211976 1.82699702144 0)
(-4.2128964412 1.92045203895 0)
(-4.04887145922 2.01840474541 0)
(-3.87756684969 2.12050495539 0)
(-3.6983108416 2.22618389405 0)
(-3.51053549491 2.33470288379 0)
(-3.31383664582 2.44518547153 0)