/*--------------------------------*- C++ -*----------------------------------*\
| =========                 |                                                 |
| \\      /  F ield         | OpenFOAM: The Open Source CFD Toolbox           |
|  \\    /   O peration     | Version:  v1806                                 |
|   \\  /    A nd           | Web:      www.OpenFOAM.com                      |
|    \\/     M anipulation  |                                                 |
\*---------------------------------------------------------------------------*/
FoamFile
{
    version     2.0;
    format      ascii;
    class       volScalarField;
    location    "800";
    object      p;
}
// * * * * * * * * * * * * * * * * * * * * * * * * * * * * * * * * * * * * * //

dimensions      [0 2 -2 0 0 0 0];


internalField   nonuniform List<scalar> 
6400
(
0.185211931163
0.184810295046
0.184400098473
0.18418435077
0.184307140679
0.184178463637
0.183389517714
0.181905262974
0.179858465833
0.177308806426
0.174342662928
0.171055078909
0.1675417771
0.16389290882
0.160189187507
0.156499962129
0.152882753009
0.149383775611
0.146039049484
0.142875783548
0.139913822275
0.13716701709
0.134644448748
0.13235146967
0.130290563192
0.128462032841
0.12686454293
0.125495534999
0.124351545805
0.123428450709
0.122721647381
0.122226184911
0.121936870442
0.121848463047
0.121956069662
0.122255617219
0.122743634022
0.123414442393
0.124259879983
0.125273106489
0.126448271439
0.127778927902
0.129258553922
0.130880689253
0.132638997843
0.13452728968
0.136539517042
0.138669748571
0.140912120932
0.143260767198
0.145709721979
0.148252805081
0.150883487892
0.153594749414
0.156378931633
0.159227606351
0.16213146733
0.165080262076
0.168062776664
0.171066884455
0.174079665371
0.177087596589
0.18007680828
0.183033389715
0.185943722316
0.188794807745
0.191574548315
0.194271922661
0.196876991828
0.199380672544
0.201774185142
0.204047956713
0.206189572049
0.208180771983
0.209995125351
0.211597269149
0.212934058366
0.213905057672
0.214375081429
0.214393530266
0.185009719445
0.184586997654
0.184345999893
0.184150190596
0.183993053867
0.183978258706
0.183245838027
0.181768347856
0.179688485574
0.177093380355
0.174081507969
0.170753372245
0.167207398539
0.163534692908
0.159815797427
0.156119198852
0.152501193693
0.149006651748
0.145670286224
0.142518135042
0.139569053291
0.136836096173
0.134327731104
0.132048857849
0.130001640573
0.128186169165
0.126600973389
0.125243414883
0.124109982472
0.123196515803
0.122498373753
0.122010532961
0.121727586061
0.121643768517
0.121753494048
0.122052656443
0.122539439193
0.123210253684
0.124058215974
0.125075573879
0.126254460951
0.127587894856
0.129069196195
0.130691880452
0.132449631419
0.134336295464
0.136345871089
0.138472483396
0.140710338264
0.143053653146
0.145496563561
0.148033006318
0.150656583365
0.153360412853
0.156136977194
0.158977980351
0.161874228733
0.164815550547
0.167790767795
0.170787732319
0.173793433511
0.176794179173
0.179775844049
0.182724172198
0.185625110312
0.188465141031
0.191231577156
0.193912763908
0.196498126198
0.198978011073
0.201343233731
0.203584160777
0.205689101699
0.207641957178
0.209419773425
0.210990690124
0.212308861356
0.213300596284
0.21386165653
0.213963220689
0.185447898107
0.184879258935
0.184452249403
0.184217962852
0.183837050983
0.183329795335
0.182303615712
0.180666570122
0.178465456017
0.175780693676
0.17271055576
0.169354528634
0.165807983478
0.162157667695
0.158479236781
0.15483633765
0.151280851059
0.147853865546
0.144587029244
0.141504022388
0.138621984609
0.135952803914
0.133504225886
0.131280774862
0.129284498052
0.127515552872
0.125972660871
0.12465345194
0.123554723334
0.122672639739
0.122002885395
0.121540714088
0.121280790654
0.12121714009
0.121344709728
0.121662708745
0.12216852907
0.122854573901
0.123713695172
0.124739382193
0.125924795747
0.12726320288
0.128748001853
0.130372739667
0.132131124903
0.134017036192
0.136024520075
0.138147772416
0.140381098433
0.142718847757
0.145155322566
0.147684659135
0.15030068593
0.152996764658
0.155765624043
0.158599199214
0.161488492008
0.164423468641
0.167393010308
0.170384929611
0.173386061963
0.176382434995
0.179359511181
0.182302491721
0.185196658321
0.188027721973
0.190782143064
0.193447380214
0.196011986637
0.198465537915
0.200798298222
0.20300048161
0.20506106001
0.206966021889
0.208695900102
0.210222868628
0.21150864466
0.212499112352
0.213103004381
0.213254044388
0.186291808622
0.185649125093
0.184973571712
0.184314501912
0.1834997539
0.182447024713
0.18099093513
0.17906367121
0.176672089606
0.173872985759
0.170748110029
0.167385414017
0.163870241249
0.160280100113
0.156682260803
0.153133066603
0.149678332332
0.146354349992
0.143189165274
0.140203905237
0.137414028253
0.134830431462
0.132460392505
0.130308346715
0.128376513733
0.126665392515
0.125174144417
0.123900884908
0.122842908668
0.121996871146
0.121358911693
0.120924619994
0.120688804385
0.120645726413
0.120791581742
0.121127974561
0.121651148562
0.12235159396
0.123222951638
0.124258544867
0.125451663042
0.126795657311
0.128283978967
0.129910210652
0.131668093801
0.1335515499
0.135554690252
0.13767180844
0.139897349934
0.142225854177
0.144651865972
0.147169815299
0.149773867756
0.152457751559
0.155214570989
0.158036620019
0.16091521299
0.163840551122
0.166801643149
0.169786294614
0.172781177711
0.17577198772
0.178743681002
0.181680787321
0.184567771282
0.187389413417
0.190131167082
0.192779496095
0.195322027102
0.197747585199
0.200046039044
0.202207738532
0.204222640304
0.206079061419
0.207761486386
0.209247415802
0.210506531669
0.211499449278
0.21213378563
0.212336697255
0.187183122693
0.186333087636
0.185307425804
0.184151315534
0.182821617851
0.181257167104
0.179364513665
0.177105591237
0.174487675349
0.17155474595
0.168371537459
0.165010095455
0.161541403732
0.158030384702
0.154533600852
0.151098612284
0.147764315086
0.144561783835
0.141515315798
0.138643497696
0.135960199329
0.133475450601
0.131196188791
0.1291268793
0.12727002092
0.125626548869
0.124196148676
0.12297749766
0.12196846092
0.121166256538
0.120567522156
0.120168140121
0.119963062051
0.119947423518
0.120119659777
0.120480378518
0.12102426256
0.121742274435
0.122628340461
0.123675976166
0.124878621203
0.126229710115
0.127722734435
0.129351294385
0.131109144514
0.132990231581
0.134988720163
0.137099000101
0.139315669341
0.141633486192
0.144047286195
0.146551861102
0.149141800822
0.151811303576
0.154553964209
0.157362555524
0.160228821442
0.163143303902
0.166095226325
0.169072449393
0.172061513298
0.175047780981
0.178015669401
0.180948976459
0.183831264651
0.186646297219
0.189378402153
0.192012964287
0.194536604941
0.196937302603
0.199204479537
0.201328567812
0.203300318979
0.205109954547
0.206745480867
0.208189425998
0.209417313762
0.210404690537
0.211052275826
0.21130472761
0.187681323895
0.186443469982
0.185080638936
0.183488441411
0.181694436723
0.17967777248
0.177396849694
0.174837948443
0.172014695843
0.168964475755
0.165738625386
0.162393936106
0.158986585459
0.155568353058
0.152184783624
0.148874618694
0.145669985807
0.142596975461
0.139676376225
0.136924436825
0.134353586954
0.131973085113
0.12978958181
0.127807597112
0.126029916959
0.124457914271
0.123091801336
0.121930826891
0.120973446511
0.12021747238
0.119660077363
0.119297478877
0.119124907245
0.119138878638
0.119340822462
0.119728186959
0.120293581265
0.121030481943
0.121932555482
0.122993384564
0.124206479405
0.125565320146
0.127063414936
0.128694361839
0.1304519098
0.132330014097
0.134322880584
0.136424991745
0.138631106755
0.140936227704
0.14333552513
0.145824218168
0.148397408283
0.151049870892
0.15377581471
0.156568625036
0.159420612508
0.162322791806
0.165264722121
0.168234426056
0.171218394967
0.174201726323
0.177168339406
0.180101334384
0.18298337592
0.185797259229
0.188526159161
0.191154424355
0.193667726839
0.196053174439
0.198299746062
0.200397892273
0.202338874073
0.204114182321
0.205714399065
0.207126149176
0.208326870479
0.209308362315
0.209959633276
0.21025809194
0.187036421147
0.185651975944
0.18410165459
0.182194020504
0.180048955844
0.177682352244
0.175097879472
0.172305004645
0.169325145453
0.166192235166
0.162947754267
0.159636028336
0.156300547219
0.152981586187
0.149714982911
0.146531707183
0.143457921971
0.140515310864
0.137721530439
0.1350907044
0.132633912651
0.130359649129
0.12827423404
0.126382173472
0.124686464148
0.123188843464
0.121889987105
0.120789665355
0.119886884361
0.119180009261
0.118666722953
0.118343666749
0.118206565814
0.118253013081
0.11848573667
0.118901044246
0.119490124654
0.120247333885
0.121166592866
0.122241641311
0.123466069727
0.124833385083
0.12633708392
0.127970729921
0.129728032424
0.131602921595
0.133589614202
0.135682662067
0.137876973695
0.140167799022
0.142550667894
0.14502127477
0.147575305827
0.150208211707
0.152914935252
0.155689611282
0.158525265718
0.161413536187
0.164344462642
0.167306376064
0.170285840879
0.173267816207
0.176235815787
0.179172363178
0.182059257021
0.184878507928
0.187612128876
0.190243547678
0.192757647727
0.19514064438
0.19738109629
0.199469382721
0.201396962393
0.203155995363
0.204738485491
0.206134485032
0.207319255211
0.208301768515
0.2089548478
0.20929597474
0.185347189685
0.18396185581
0.182343934619
0.180250064849
0.177882206925
0.175283580162
0.172494924
0.169546430165
0.16646843269
0.163294156674
0.160058634476
0.156797051289
0.153543146599
0.150328099722
0.147179911111
0.14412315476
0.141178982126
0.138365282394
0.135696935252
0.133186112994
0.130842601343
0.128674116301
0.126686600471
0.124884487835
0.123270930624
0.121847985416
0.120616759949
0.119577531367
0.118729854087
0.118072639967
0.117604085342
0.117321383267
0.117221026287
0.117301498705
0.117565740483
0.118009430328
0.118622986281
0.119401307446
0.120338549262
0.121428587327
0.122665070343
0.124041506165
0.125551350091
0.127188097967
0.128945382529
0.130817069548
0.132797347646
0.134880802873
0.137062466686
0.139337824506
0.141702772484
0.144153511839
0.146686372229
0.149297566549
0.151982886556
0.154737352318
0.157554860505
0.16042783676
0.163346957693
0.166301053655
0.169276905471
0.172259533534
0.175232158255
0.178176981541
0.181074938025
0.183907662684
0.186656011499
0.189302686453
0.191832086089
0.194229441024
0.196482935008
0.198582715165
0.200520041144
0.202287282776
0.203876591447
0.205280801932
0.206469626864
0.207468131282
0.208129346371
0.20851222371
0.182886022593
0.181538721375
0.179911846678
0.17773128342
0.175250992691
0.172527340566
0.169628697321
0.166601178175
0.16348341077
0.160309611305
0.157111173657
0.153917212341
0.15075458888
0.147647815289
0.144618961248
0.141687609323
0.138870874366
0.136183488084
0.133637941818
0.131244673326
0.129012279282
0.1269477346
0.125056602395
0.123343222789
0.121810873077
0.120461895732
0.119297797781
0.118319335046
0.117526587478
0.116918977521
0.11649513946
0.116252789306
0.116189429313
0.116304645991
0.116600633049
0.117072533099
0.117710643462
0.118510300146
0.119465857914
0.120571291555
0.121820275582
0.123206287226
0.124722707334
0.126362926893
0.128120460068
0.129989061582
0.131962842472
0.134036374305
0.136204768542
0.13846371487
0.140809462266
0.143238730163
0.145748532367
0.148335914661
0.150997623638
0.153729692525
0.156527043481
0.159383073507
0.162289232171
0.165235101739
0.168207797451
0.171192706682
0.174172816765
0.177130507708
0.180045732026
0.182900508864
0.185674537157
0.188350008119
0.190911356474
0.193342551366
0.195631685048
0.197768663963
0.199744053758
0.201550190124
0.203178203975
0.204622273935
0.205844523844
0.206881508722
0.207564839268
0.207993266355
0.179837094227
0.178547325452
0.176947987601
0.174752171781
0.172243668751
0.169481004273
0.166551344392
0.163511182671
0.160405611068
0.157270387809
0.154135176539
0.15102542976
0.147963520759
0.144969377181
0.142060804127
0.139253640604
0.136561850136
0.133997606241
0.131571400784
0.129292179504
0.127167495469
0.125203666191
0.123405921129
0.121778529907
0.120324905122
0.119047677297
0.117948749167
0.117029349156
0.116290077866
0.115730847925
0.11535063496
0.11514754891
0.115120471592
0.115271223208
0.115599072122
0.116098096418
0.11676043954
0.117581418046
0.118555474545
0.119676619038
0.120938514442
0.122334578827
0.123858090546
0.12550230324
0.127260572728
0.129126494736
0.131094047823
0.133157730309
0.135312676117
0.137554729789
0.139880457211
0.142287083608
0.144772325634
0.147334106111
0.149970218379
0.152677819706
0.155452989132
0.158290316607
0.161182068628
0.164118938323
0.167088376685
0.170076643257
0.173066389809
0.176041090102
0.178979329267
0.181864618498
0.18467543804
0.187393530972
0.19000441152
0.192490298812
0.194840379658
0.197044977282
0.199092799129
0.200975569535
0.202682531785
0.204206153658
0.205501038959
0.206605813086
0.207332208019
0.207817214058
0.176345612481
0.175131563244
0.173588907552
0.171430346224
0.168955581129
0.166219034855
0.163319875917
0.160320166559
0.15726942378
0.15420480272
0.15115533446
0.148144463353
0.145191832022
0.14231437832
0.139526960632
0.136842697239
0.134273160417
0.131828513939
0.129517638714
0.127348260846
0.125327079561
0.123459886152
0.121751665519
0.120206674909
0.118828497001
0.117620067325
0.116583687021
0.115721046744
0.1150332473
0.11452066486
0.114182575614
0.114017421856
0.114025511074
0.11421121936
0.114570193699
0.115094998999
0.115780916695
0.11662285746
0.117615256976
0.118752113703
0.120027054147
0.121433419489
0.122964367236
0.124612989487
0.126372449918
0.128236139863
0.130197848959
0.132251937278
0.134393491593
0.136618446465
0.138923626238
0.141306721893
0.14376615116
0.146300717933
0.148909335939
0.15159037899
0.154341135793
0.157157715605
0.160033022297
0.162959432465
0.165924493645
0.168916189037
0.171916414433
0.174911064562
0.177876517031
0.180798949465
0.183655705247
0.186428111787
0.189105195366
0.191666532724
0.19410475759
0.196411983464
0.198572114419
0.200574801307
0.202407148082
0.204055874067
0.205472117367
0.206684883733
0.207486649762
0.208051635651
0.1725518628
0.171424652253
0.169958649942
0.167874379344
0.165477134056
0.162813715879
0.15999037337
0.157071058568
0.154107932356
0.151139084162
0.148193427808
0.145293405693
0.142457096816
0.139699567389
0.137033699041
0.13447068233
0.132020324126
0.129691262607
0.127491138344
0.125426739714
0.12350412504
0.121728718319
0.120105375943
0.118638424337
0.11733167002
0.116188385642
0.115211286002
0.114402521386
0.113763668226
0.113295547085
0.112997807902
0.112869341153
0.112911325049
0.113128800897
0.11351700813
0.114067642412
0.114776677474
0.11563914193
0.116649537192
0.117801875715
0.11908975566
0.120506444377
0.122044976774
0.12369827368
0.125459284964
0.127321160741
0.129277449643
0.131322308953
0.133450700607
0.135658575249
0.137942939132
0.140301874416
0.142734489939
0.145240415004
0.147819725942
0.150472111167
0.15319592351
0.15598936975
0.158845415521
0.161759056947
0.164717338221
0.167711111915
0.170720643449
0.173735424623
0.176728573839
0.179690346601
0.182598170244
0.185433085996
0.188192311732
0.190850794751
0.193404082849
0.195846403767
0.198155355954
0.200318670421
0.202323170301
0.204149983109
0.205749556175
0.207130604615
0.208059156666
0.208748415412
0.168582017673
0.167545099282
0.166166511005
0.164180248564
0.161889252011
0.159330825363
0.156614702142
0.153804021367
0.150952148554
0.14809752403
0.145269080216
0.142488782914
0.139773848361
0.137138198609
0.134593414851
0.132149352598
0.129814555945
0.127596555608
0.125502094906
0.123537302132
0.121707815361
0.120018862179
0.118475297885
0.117081607652
0.115841878975
0.114759752487
0.113838367643
0.113080325758
0.112487644382
0.112061556463
0.111802151159
0.111708878343
0.111783461398
0.112030834187
0.112446582771
0.113021944726
0.113753132578
0.114635262702
0.115662892496
0.116830054693
0.118130331336
0.119556930534
0.121102777164
0.122760626307
0.124523207206
0.126383404274
0.128334480802
0.13037033548
0.132485722117
0.134676532888
0.136939875053
0.139274094935
0.141679003666
0.144154919414
0.146703054496
0.149324602207
0.152018448434
0.15478593541
0.157618995344
0.160516474487
0.163463947428
0.166455878444
0.169469994229
0.17249994795
0.175515838878
0.178514498599
0.181478251478
0.184383674919
0.18723964934
0.190018134246
0.192705968597
0.195299388184
0.1977850915
0.200151998519
0.202384234583
0.204456884289
0.206316326299
0.207941393992
0.209069854307
0.209948165234
0.164539111869
0.163591130819
0.162304172128
0.160429320588
0.158261449485
0.155827759268
0.153238888352
0.150555252776
0.14783030848
0.145102247337
0.142399929858
0.139745045752
0.137154317213
0.134640960453
0.132215707329
0.129887510399
0.127664047947
0.125552097225
0.123557811749
0.121686919381
0.11994485012
0.118336801513
0.116867751294
0.115542428063
0.114365250737
0.113340249906
0.112470991093
0.111760512596
0.111211233519
0.110824728861
0.110601500222
0.110541645596
0.11064735718
0.110923031856
0.111364869253
0.111963630971
0.112715701594
0.113616272825
0.114659957408
0.115840820171
0.117152447845
0.118588015726
0.120140365584
0.12180210842
0.12356576299
0.125423940031
0.127369580406
0.129396289886
0.13149852517
0.133672050359
0.1359140211
0.138222827705
0.140599061985
0.143043513884
0.145558362325
0.148146762389
0.150807041061
0.153545189985
0.156350587588
0.159226683339
0.162156771377
0.165138463005
0.168147662385
0.171183400349
0.174218534176
0.17725161066
0.180282134184
0.183266769616
0.186210455593
0.189099765797
0.191926983694
0.194688488222
0.197377612824
0.199986015654
0.202498494621
0.204886464192
0.207091893232
0.209057682407
0.210500316662
0.211684210368
0.160503779331
0.159640756729
0.158445460132
0.156688014968
0.154651371201
0.152352930308
0.149902452384
0.147356371547
0.144767416432
0.142172981411
0.139601652298
0.137074845707
0.134608942824
0.132216695654
0.12990827774
0.127692050219
0.125575136707
0.123563856012
0.121664039022
0.119881244242
0.118220883556
0.116688271375
0.115288612603
0.114026945021
0.112908050202
0.111936350709
0.111115820125
0.110449907538
0.109941384416
0.109592030289
0.109402595504
0.109374113962
0.109509936904
0.109812726705
0.110279058552
0.110899590127
0.111670908176
0.112588281939
0.113646374945
0.114839294326
0.116160655103
0.117603633516
0.119161025931
0.120825334886
0.122588893773
0.124444054565
0.126383394649
0.128400232987
0.130488630708
0.132644146851
0.134864023975
0.137146317147
0.139492594057
0.141903880367
0.144382906777
0.146935645625
0.149558224845
0.15226263632
0.155034285209
0.157880435886
0.160783020802
0.163742469329
0.1667384423
0.169771418455
0.172837720923
0.175899351963
0.17896182887
0.182004970705
0.185024783225
0.188015693896
0.190975461356
0.19390535941
0.196806359422
0.199676812526
0.202506515327
0.205268064035
0.20790176315
0.210317745736
0.212234903449
0.213884449566
0.156538208938
0.155754673935
0.154648327978
0.153009081594
0.151105509143
0.148946055913
0.146638407058
0.144234266502
0.141785072727
0.139326961448
0.136888008678
0.134489258927
0.132146780227
0.129872979036
0.127677654453
0.125568800006
0.123553225979
0.121637032024
0.119825947692
0.118125553585
0.116541397642
0.115079024828
0.113743941106
0.112541531379
0.111476947561
0.110554987725
0.109780001086
0.109155811103
0.108685492087
0.108370888599
0.108212804415
0.108213748527
0.108380189023
0.108709644153
0.109197372357
0.109837540974
0.110626105135
0.111558268845
0.112628697261
0.113831538802
0.115160458641
0.116608671375
0.118168971888
0.119833802209
0.121595342456
0.12344574143
0.125377139399
0.127382641358
0.129455804247
0.13159185218
0.13378834447
0.136042409258
0.138356915162
0.140733001349
0.143173179015
0.145687207284
0.148267153486
0.150931225148
0.153660828325
0.156465243651
0.159331162806
0.162258522657
0.165249196585
0.168267563706
0.171320979207
0.174388758579
0.177464733842
0.180538718074
0.183607379752
0.186671027927
0.189734258821
0.192805977654
0.195896870931
0.199015793044
0.202162330196
0.205316388448
0.208420942803
0.211357974352
0.213851126339
0.215983537748
0.152689617066
0.151979291143
0.150957393014
0.149433546021
0.147660544123
0.145638987166
0.143473701946
0.141211292786
0.138901549737
0.136578990375
0.134270963209
0.131998004791
0.129775836915
0.12761656989
0.125529744647
0.123523148757
0.121603464547
0.119776761348
0.118048842705
0.116425460594
0.114912414521
0.113515558741
0.112240743235
0.111093711408
0.11007997195
0.109204667131
0.108472476327
0.107887539114
0.107453178082
0.107171305053
0.107042835172
0.107071429784
0.107265252081
0.10761947834
0.108127427778
0.108785410642
0.109589150628
0.110533849395
0.111614199346
0.112824410572
0.114158223582
0.115608931216
0.117169369199
0.118831982708
0.12058881329
0.122431943372
0.124352916308
0.126344788401
0.128400517195
0.13051473248
0.132685842194
0.134909279572
0.137189537669
0.139527936753
0.141925554349
0.144396431032
0.146927190992
0.149540947766
0.152221604274
0.15497349135
0.157808889942
0.160691769621
0.163635980413
0.166621322672
0.169640965693
0.172682268501
0.175737480266
0.178800896926
0.181872064802
0.184956190629
0.18806454831
0.191214441149
0.194427301644
0.197724609653
0.201118719697
0.204601145901
0.208113879048
0.211488504119
0.214439280005
0.216909618557
0.148993032836
0.148349325439
0.147406300323
0.145992675569
0.144344839199
0.142456755622
0.140429900705
0.138305681862
0.136132039706
0.133941614708
0.131760853894
0.129609652961
0.127503334616
0.125453728362
0.123470191827
0.121560422761
0.119731113158
0.117988441883
0.116338412389
0.114787048291
0.113340468703
0.112004871406
0.110786453547
0.109691295175
0.108725224156
0.107893684586
0.107201642562
0.106653501198
0.106252800905
0.106001651357
0.105901348334
0.105956257893
0.106174388362
0.106550896255
0.107077635025
0.107751461161
0.108568139752
0.109522906535
0.110610497736
0.111825202816
0.113160852032
0.11461085705
0.11616811787
0.117825180168
0.119573885841
0.121406537925
0.123313768238
0.125288851843
0.127324144429
0.129413227441
0.131556178485
0.133745942453
0.135988586192
0.138285820606
0.140635652935
0.143056318327
0.145533091123
0.148083836862
0.150722732177
0.153413849725
0.156181821123
0.159008090002
0.161888686978
0.164810903176
0.167764540661
0.170739038587
0.173726654962
0.176723325554
0.179730465818
0.182756219469
0.185816284702
0.188934136117
0.192139561241
0.195464146533
0.198929692302
0.202532850279
0.206175087321
0.20959616567
0.213032287313
0.216945069802
0.14547373427
0.144890084834
0.144019817591
0.142709770008
0.141179867565
0.139418643098
0.137523935616
0.135532049489
0.133488992998
0.131425362233
0.129366582809
0.127331800541
0.125335889704
0.12339040076
0.121504556983
0.11968604688
0.117941667162
0.116277798886
0.114700722015
0.113216783354
0.111832444391
0.110554241747
0.109388692843
0.108342172893
0.107420782234
0.106630226021
0.105975726605
0.10546191354
0.105092508599
0.104869920261
0.104796107709
0.104875961922
0.105116276568
0.105512861403
0.10605633748
0.106743796773
0.107571007575
0.108533213202
0.109625175941
0.110841277305
0.112175426879
0.113621208897
0.115171554755
0.116819287065
0.118555807045
0.120374158381
0.122263568036
0.124217864535
0.126229012572
0.128288879185
0.130399996006
0.132552153229
0.134752233324
0.137002958218
0.139299726391
0.141659267893
0.1440900742
0.14657487151
0.149136843748
0.15176152421
0.154451407587
0.157196547952
0.159988079114
0.162814140122
0.165662774779
0.168522689631
0.171384995534
0.174244655409
0.177102007367
0.179964103004
0.182845699873
0.185769633832
0.188765568655
0.191864797008
0.195084721259
0.198397094576
0.201571473745
0.204576078342
0.208148911637
0.214219055812
0.142149367036
0.141619457477
0.140815660392
0.139601737911
0.138181501034
0.136539183584
0.134768848904
0.13290192217
0.130982483088
0.129038995164
0.127095796903
0.125171207155
0.123279616659
0.121432295267
0.119638363256
0.117905551064
0.116240817174
0.114650794384
0.113142071303
0.111721327444
0.110395353367
0.10917099255
0.108055039079
0.1070541158
0.106174551058
0.105422278488
0.104802764098
0.10432084787
0.103980355062
0.103783958262
0.103734663904
0.103838249703
0.104098796703
0.104513267569
0.105071264004
0.105770012464
0.106605239192
0.107572155144
0.108665498774
0.109879775079
0.111208913401
0.112646772642
0.114186155593
0.115820494622
0.117540225977
0.119339931456
0.121206895619
0.123135736322
0.125118433765
0.127144218184
0.12921850023
0.131327727273
0.133478800666
0.13567584017
0.137922637638
0.140221193678
0.142577691262
0.144993359376
0.147473700391
0.150012890926
0.152606905939
0.155246500678
0.157920115302
0.160614081665
0.163313959819
0.166005753045
0.168677247767
0.171319249138
0.173926648048
0.176499177025
0.179041637689
0.181563218841
0.184074954722
0.186582944554
0.189071141016
0.191453889818
0.193369499735
0.194459958714
0.194792185548
0.198337606586
0.139031700675
0.138549575282
0.137806031346
0.136680441543
0.135361129785
0.133829055552
0.132174472561
0.130424234241
0.128620556984
0.126789748327
0.124955042433
0.12313388612
0.121340168643
0.119584878233
0.117877050233
0.116224483263
0.114634321758
0.113113462937
0.111668799465
0.11030732027
0.109036105636
0.1078622561
0.106792789181
0.105834524996
0.104993976099
0.104277271699
0.103690109625
0.103237531027
0.10292335019
0.102750347164
0.102723264878
0.102850454302
0.103130080754
0.103559482175
0.104129541522
0.104837106131
0.105677752209
0.106646607565
0.107738270948
0.108947464384
0.110267971781
0.111694137444
0.113218265665
0.114834975257
0.116532982945
0.118309332654
0.120149073448
0.122047329316
0.123996502294
0.125982027601
0.128012297907
0.130073673283
0.132172031096
0.134317638582
0.136497077503
0.138726010205
0.141006640554
0.143340141382
0.145727554823
0.148164183362
0.150642656876
0.153151658348
0.155676706273
0.158200948517
0.160706172067
0.163173831818
0.165585964556
0.167925810541
0.170177936791
0.172327557489
0.174358523452
0.176248980736
0.177962584366
0.179430455612
0.180512496284
0.180900009229
0.179927913264
0.175035226979
0.158851096447
0.103563352931
0.136128032539
0.135688158266
0.134998877321
0.133953809391
0.132726604123
0.131295846863
0.12974802282
0.128105769997
0.126409548385
0.124683536733
0.122949887433
0.121225157982
0.119522733994
0.117853322301
0.116225880569
0.114648281182
0.113127851951
0.11167173834
0.110287105422
0.108981206112
0.107761355773
0.10663485418
0.105608887354
0.104690425876
0.103886131028
0.103202303162
0.10264485825
0.102219037364
0.101928639288
0.101776553552
0.101769548709
0.101919167462
0.102217007562
0.102657908439
0.103237512327
0.103951430036
0.104794883929
0.105762940431
0.106849817988
0.108050686193
0.109358840088
0.110769504423
0.112273932408
0.113868716102
0.115540198478
0.11728835561
0.119096023052
0.120957571364
0.122866435008
0.124805894914
0.126782876021
0.128800504131
0.130838555398
0.132915874143
0.135027858648
0.137180354916
0.139376227236
0.141615955381
0.143897673932
0.146215006483
0.148557543637
0.150910774765
0.153256545974
0.155573791686
0.157839320121
0.160028476858
0.162115477605
0.164073152893
0.165871748122
0.167476213425
0.168840984742
0.169900371293
0.170550763028
0.170616714774
0.169783393604
0.167453657176
0.162461885352
0.152040523915
0.127902664336
0.0768581503972
0.133442294384
0.133039581865
0.132398895349
0.131426735456
0.130283006303
0.128944691099
0.1274946018
0.125951540552
0.124354344326
0.122725127628
0.121085014094
0.119449676404
0.117832007046
0.116242432361
0.114689830918
0.113182138407
0.111726843777
0.110331304933
0.109002911477
0.107749124435
0.106577436046
0.105495290449
0.104509994907
0.103628633892
0.102857994217
0.10220453221
0.101674351314
0.101272865077
0.101004026046
0.100871230211
0.100882441559
0.101048577456
0.101361553007
0.101813457181
0.102400789426
0.103118842134
0.103962508957
0.104927099048
0.106006001766
0.107195296102
0.10848729102
0.109878680455
0.111359190758
0.11292791588
0.114568520994
0.116283165423
0.11805272114
0.119869642135
0.121728593416
0.12362354478
0.125545972782
0.127499240085
0.129476764037
0.131483195137
0.133518989894
0.135587115435
0.137689166403
0.139823918525
0.14198671113
0.144168351137
0.146354986381
0.148528246746
0.150665661062
0.152741240103
0.154725996419
0.15658817391
0.158292926308
0.159801108708
0.161066697569
0.162032065486
0.162619783311
0.162718571444
0.162158983811
0.160670523722
0.15780396662
0.152789332285
0.144265349542
0.129839992545
0.104444438785
0.0629379544144
0.13097591442
0.130605714065
0.130008326408
0.129101794604
0.128033271197
0.126778785121
0.125417609679
0.123965095403
0.122458604822
0.120918278647
0.119364286518
0.117811436466
0.116272147654
0.11475656678
0.113273485258
0.111830880002
0.110436365428
0.109097463407
0.107821730038
0.106616771111
0.105490191097
0.104449514983
0.10350210896
0.102655109696
0.101915373298
0.101289468049
0.100783637877
0.10040344001
0.100153233828
0.100037616111
0.100065658027
0.100245644041
0.100571215965
0.101032172036
0.101625140458
0.102345066798
0.103186176281
0.104144617032
0.105212233046
0.106386719082
0.10765899739
0.109027680554
0.110480769519
0.112019292779
0.113624017303
0.115296978853
0.117020699475
0.118786773419
0.120596750813
0.122433073831
0.124297450764
0.126185546467
0.128093759144
0.130023391643
0.131975499823
0.133951318602
0.135950477136
0.137969404181
0.140000378844
0.142030782665
0.144042908132
0.146014141698
0.147917354736
0.14972133507
0.151391029482
0.152887344225
0.15416621243
0.155176552583
0.1558565787
0.156127624345
0.155884113222
0.154977392374
0.153189551933
0.150190778007
0.145469147406
0.138217741318
0.127143548122
0.11025180734
0.0839782430482
0.0475776609608
0.128728482692
0.128386565258
0.127827574869
0.12697980461
0.125978678374
0.124799803092
0.123519076909
0.122148774603
0.12072494003
0.11926584699
0.11779080031
0.116313773801
0.114846739485
0.113399564736
0.111980941186
0.110598857309
0.109261009239
0.107975027275
0.106748570619
0.105589322223
0.104504929399
0.103502927955
0.102590672833
0.101775284138
0.101063630794
0.100462372301
0.0999778969074
0.0996158593022
0.0993810970085
0.0992801633751
0.0993238314032
0.0995154267159
0.0998517821883
0.100319785646
0.100916129723