/*--------------------------------*- C++ -*----------------------------------*\
| =========                 |                                                 |
| \\      /  F ield         | OpenFOAM: The Open Source CFD Toolbox           |
|  \\    /   O peration     | Version:  v1806                                 |
|   \\  /    A nd           | Web:      www.OpenFOAM.com                      |
|    \\/     M anipulation  |                                                 |
\*---------------------------------------------------------------------------*/
FoamFile
{
    version     2.0;
    format      ascii;
    class       volScalarField;
    location    "800";
    object      p;
}
// * * * * * * * * * * * * * * * * * * * * * * * * * * * * * * * * * * * * * //

dimensions      [0 2 -2 0 0 0 0];


internalField   nonuniform List<scalar> 
6400
(
0.189282825936
0.189040185792
0.188658822441
0.188274309578
0.188125071974
0.187743807047
0.186873238134
0.185404395026
0.183381791766
0.180867830809
0.177945946044
0.174709171851
0.17125146836
0.167661481569
0.164018657125
0.1603912953
0.156836060559
0.153398474913
0.150113996101
0.14700937484
0.144104077477
0.141411638949
0.138940871735
0.136696899072
0.134682008582
0.13289633855
0.131338417414
0.1300055803
0.128894287704
0.128000369461
0.127319209122
0.126845874645
0.126575229169
0.126502130112
0.126621828056
0.126930421341
0.127424570237
0.128098588408
0.128944532074
0.129955898804
0.131127046096
0.132451783714
0.133923860143
0.135537089271
0.137285404896
0.139162875252
0.141163691632
0.143282134242
0.145512514945
0.147849096256
0.150285986803
0.152817015667
0.155435590347
0.15813454625
0.160905998187
0.163741207075
0.16663047626
0.16956309262
0.17252732605
0.175510498293
0.178499126861
0.181479143688
0.184436179894
0.187355899891
0.19022435887
0.19302834883
0.195755686396
0.198395385041
0.200937648381
0.20337360879
0.205694693587
0.207891397375
0.20995113671
0.211855336644
0.21357708933
0.215079002859
0.216302188962
0.217143985101
0.217498191033
0.217475006175
0.189324943743
0.189047820778
0.188784080115
0.188439549392
0.188027325042
0.187693733824
0.186808252016
0.185302501651
0.183231983822
0.180666578092
0.177695989127
0.174417016428
0.170925621325
0.1673110933
0.163652556934
0.160017377473
0.156460961175
0.153027469244
0.149751046828
0.146657270882
0.143764616234
0.14108581893
0.13862907449
0.13639904906
0.134397706109
0.132624965036
0.131079214445
0.129757704402
0.128656842753
0.127772419416
0.127099774846
0.126633899075
0.126369432747
0.126300698114
0.126422254802
0.126730227283
0.127222984832
0.127896971453
0.128745331842
0.129760557708
0.13093510725
0.132262283892
0.133735689226
0.135349117008
0.137096523709
0.138972016871
0.140969837963
0.143084328608
0.145309876208
0.147640834993
0.150071422965
0.152595595188
0.155206899081
0.15789831812
0.160662115767
0.163489691774
0.166371467017
0.16929681132
0.172254029923
0.175230419159
0.178212399106
0.181185722518
0.184135753216
0.187047796922
0.18990746027
0.192701004186
0.195415648894
0.198039774321
0.200562962986
0.202975823576
0.205269473676
0.207434530191
0.209459458933
0.21132829515
0.213018120294
0.214496025436
0.215713302248
0.216598390925
0.217070069881
0.217131813618
0.18980886057
0.189399752107
0.18893514607
0.188549542728
0.187966292152
0.187215113698
0.186026035106
0.184312546905
0.182088351254
0.17941336198
0.176372257895
0.173057399218
0.169559832446
0.165963506165
0.162342133162
0.15875795188
0.155261790923
0.151893933995
0.148685399281
0.145659361818
0.142832545908
0.140216490237
0.137818641431
0.135643265487
0.133692186382
0.131965370758
0.130461380891
0.129177719131
0.128111088234
0.127257593073
0.126612889452
0.126172228218
0.125930301872
0.125881222327
0.126020148843
0.12634668928
0.126858004569
0.1275464426
0.128405328429
0.129428327239
0.130608856331
0.131940453907
0.13341679718
0.135031714036
0.136779190436
0.138653372865
0.14064855923
0.142759172429
0.144979711516
0.147304677128
0.149728469347
0.152245258964
0.15484883583
0.157532441811
0.160288599038
0.163108947637
0.165984108832
0.1689035905
0.171855751342
0.174827837229
0.177806097861
0.180775985667
0.183722429823
0.186630170372
0.189484127215
0.192269772171
0.194973466654
0.197582706099
0.200086219528
0.202473906354
0.204736456338
0.20686454488
0.208847658703
0.210672420472
0.212320049334
0.213762974006
0.21496255296
0.215868964251
0.216411337899
0.216525487176
0.190504959968
0.189986924622
0.189305307489
0.188562993864
0.187616325117
0.186406811492
0.184824380916
0.182816716109
0.180386949136
0.177581997924
0.17447351409
0.171142250503
0.167668529011
0.164126427942
0.160580830529
0.157086381308
0.153687654558
0.150420010863
0.1473107753
0.144380499753
0.141644169523
0.13911228258
0.136791773496
0.134686779907
0.132799263217
0.131129500716
0.129676467375
0.128438127492
0.12741166172
0.126593650416
0.125980188845
0.125566833471
0.12534838746
0.125319263554
0.125476013357
0.125820335264
0.126348333094
0.127050561555
0.127920970758
0.128953135196
0.130140609036
0.131477018033
0.132956095753
0.134571710639
0.136317888592
0.138188828495
0.140178905388
0.142282655211
0.144494735662
0.146809858327
0.149222689309
0.15172771773
0.154319095218
0.156990453157
0.159734709048
0.162543876949
0.165408899909
0.168319523068
0.171264226712
0.174230235623
0.177203615256
0.180169459446
0.183112163172
0.186015767481
0.188864351712
0.19164243753
0.194335382327
0.196929700278
0.199413214845
0.201775155389
0.204005971568
0.206096684141
0.208038084379
0.209819580461
0.211426959423
0.212839257746
0.21402741033
0.214954178917
0.21554940481
0.215714878525
0.191165504486
0.190414762063
0.189438579298
0.188273576586
0.186880611127
0.185225174235
0.183248477197
0.180928254642
0.178276245481
0.175333925767
0.172160923495
0.168824304128
0.165390891445
0.161922427149
0.158473107844
0.155088743113
0.151806919668
0.14865771173
0.145664630805
0.142845627399
0.140214041164
0.137779449797
0.135548398659
0.133525011048
0.131711487772
0.130108507352
0.128715538424
0.127531080796
0.126552863937
0.125778012865
0.125203103764
0.124823957888
0.124635491037
0.124633102568
0.124815991277
0.125184025779
0.125731549137
0.126450410495
0.127334620376
0.128377914135
0.129573983766
0.130916536466
0.132399348481
0.134016311291
0.135761472171
0.137629066658
0.139613537913
0.141709536825
0.143911896177
0.146215572796
0.148615552971
0.151106719018
0.153683678559
0.156340562963
0.159070806346
0.161866921849
0.164720295507
0.167621018473
0.170557780361
0.173517845603
0.176487123752
0.179450345579
0.182391335529
0.185293371327
0.188139610602
0.190913529398
0.193599372957
0.196182604652
0.198650042685
0.200990140926
0.203193076903
0.205250118705
0.207153062556
0.208893579238
0.210461365097
0.21184130089
0.213011827052
0.213945312986
0.214572263597
0.21478614024
0.191402730885
0.190307040964
0.189031272767
0.187480368593
0.18567810913
0.183622923194
0.181296918393
0.178701180366
0.175856373006
0.172801126742
0.169585124269
0.166262484845
0.162886619703
0.159506888572
0.156166860377
0.152903710729
0.149748331347
0.146725826235
0.143856180136
0.141154970964
0.138634055934
0.136302196493
0.134165607012
0.132228423726
0.130493096383
0.128960707064
0.127631221539
0.126503686121
0.125576399023
0.124847059693
0.124312766152
0.123969682938
0.123813029295
0.123839494059
0.124050881236
0.12444455468
0.125012891919
0.125749719879
0.126648940382
0.127704386034
0.128909831115
0.130259034134
0.131745793093
0.133364003918
0.135107717455
0.13697119029
0.138948923431
0.141035681551
0.143226484684
0.14551656423
0.147901276398
0.150375968601
0.15293579852
0.155575511457
0.158289187698
0.161069978069
0.163909852715
0.166799385084
0.169727596458
0.172681896031
0.17564811902
0.17861069343
0.181552915106
0.184457321112
0.18730616801
0.190081910151
0.192767660921
0.19534790966
0.19780847978
0.2001369824
0.202323351212
0.204358980614
0.206236231549
0.207948284697
0.209487555867
0.210842967813
0.211997372104
0.212931577559
0.213576940015
0.213835880634
0.190649941018
0.189388965348
0.187923791623
0.186080159485
0.183961761666
0.181594835636
0.178997456706
0.176191042232
0.173204334566
0.170074301426
0.166842846185
0.163553358858
0.160247843397
0.156965006618
0.153739240492
0.15060025941
0.147573159528
0.144678718912
0.141933818015
0.139351906187
0.136943469873
0.134716476063
0.132676775354
0.130828456211
0.129174146958
0.127715264642
0.126452212611
0.125384537514
0.124511070306
0.123830046238
0.123339063294
0.12303473318
0.122912816729
0.122971006052
0.12321216716
0.123632673346
0.124223643097
0.124979688761
0.125894966343
0.126963467022
0.128179048102
0.129535497995
0.13102660724
0.132646243451
0.134388426724
0.136247401035
0.138217695302
0.140294165778
0.142472009871
0.144746740789
0.147114113322
0.149569993451
0.152110168384
0.154730101791
0.157424646601
0.160187733151
0.163012067188
0.165888861585
0.168807617555
0.171756032332
0.174719992249
0.177683734686
0.180630132358
0.183541065229
0.186397969742
0.189182406627
0.191876344746
0.194463495282
0.196928777632
0.199258854366
0.2014434823
0.203474031143
0.205342975548
0.207044305006
0.208571949546
0.209917210054
0.211064475489
0.21200202978
0.212660519669
0.212961850603
0.188937099242
0.187640805418
0.186091961926
0.184066610319
0.181742659319
0.179167612138
0.176389391057
0.173446486618
0.170375362548
0.167212707901
0.163995029026
0.160757697904
0.157533934501
0.154354081962
0.151245207628
0.148230966503
0.145331650953
0.142564363679
0.139943268726
0.137479887201
0.135183411646
0.133061018034
0.131118159131
0.129358827957
0.127785784405
0.126400741661
0.125204514224
0.124197138429
0.123377980167
0.122745806998
0.12229871115
0.122033856227
0.121947820214
0.122039180378
0.122310841988
0.122758589534
0.123372874517
0.124148837477
0.125080869647
0.126163098214
0.12738943954
0.12875368457
0.130249585512
0.131870947009
0.133611720225
0.135466096172
0.137428591798
0.139494119511
0.141658028217
0.143916102249
0.14626450499
0.148699656795
0.151218038815
0.153815925451
0.156489062466
0.159232300039
0.162039232914
0.16490188864
0.167810412849
0.170752968859
0.1737156578
0.176682681192
0.17963665734
0.182558959233
0.185430328679
0.188231744064
0.190943994548
0.193550370454
0.196035074007
0.198383602861
0.200585676598
0.202632353305
0.204515778013
0.206230220877
0.207769945447
0.209127175154
0.210285412005
0.21123856938
0.2119133937
0.212257023846
0.18647442697
0.185194490315
0.183624543506
0.181510195946
0.17908060475
0.176393915535
0.173520983638
0.170513118966
0.167413432921
0.164259259844
0.161083800684
0.157916956809
0.154785698394
0.151714241004
0.148724138283
0.145834352872
0.143061342301
0.140419179946
0.137919716992
0.135572779385
0.133386386095
0.131366972238
0.129519602048
0.127848160492
0.126355515958
0.125043650252
0.123913760404
0.122966347286
0.12220129215
0.121617860214
0.121214544856
0.120988991135
0.120938899659
0.121064215006
0.121366699595
0.121841427461
0.122479007853
0.123275021714
0.124224059787
0.125320345056
0.126557818129
0.127930239244
0.129431287507
0.131054665905
0.132794212907
0.134644018016
0.136598534915
0.138652681847
0.140801915315
0.1430422599
0.145370275951
0.147782952867
0.150277512141
0.152851114006
0.155500506284
0.158221594894
0.161009004142
0.163855771809
0.166752851285
0.169689077911
0.172650959125
0.17562284114
0.178587320726
0.181525518352
0.184417620287
0.187244634224
0.189986032335
0.192625208505
0.195145925634
0.197532088473
0.199773995942
0.201862055522
0.203787631414
0.205545140927
0.207128033362
0.208527604696
0.209724212875
0.210714025241
0.211416303086
0.211806669115
0.183437263656
0.18220189606
0.180651447218
0.178517644544
0.176061482787
0.173342595247
0.170447901251
0.167436934814
0.164357801085
0.161248759099
0.158141208343
0.155061617356
0.152032810964
0.149074766058
0.146205068708
0.14343916991
0.140790545036
0.138270825718
0.1358899392
0.133656264817
0.131576802058
0.129657338192
0.127902603724
0.126316407046
0.124901742375
0.123660868482
0.12259536654
0.121706200136
0.120993763263
0.120457802907
0.1200971293
0.119909745631
0.119894900544
0.120055428473
0.120388927381
0.120888959173
0.12154934631
0.122365309945
0.123331472796
0.124442073679
0.125691036
0.127072059196
0.128578719761
0.130204584665
0.131943337653
0.133788916184
0.135735652873
0.137778410119
0.139912691793
0.142134711983
0.144441392897
0.146830281694
0.149299365714
0.151846740689
0.1544702445
0.157166971596
0.159932668899
0.162761606195
0.165645671985
0.168574593603
0.171535498832
0.174513079755
0.177490216028
0.18044820097
0.183366700209
0.186227678804
0.189008868333
0.191694489344
0.194268389384
0.196712181544
0.199019026416
0.201178394793
0.203179396793
0.205016743275
0.206682138339
0.208163145578
0.209434777069
0.210490308462
0.211239176117
0.211687522189
0.179972611956
0.178803018636
0.177302494003
0.175200843425
0.172777301568
0.170087288047
0.167228171247
0.164263667995
0.161245168927
0.158211702968
0.155193787762
0.152215889966
0.149298242758
0.146458020103
0.143710046667
0.141067212588
0.138540728642
0.136140310911
0.133874341967
0.131750025456
0.129773533922
0.127950142727
0.126284343095
0.124779930059
0.123440062942
0.122267298733
0.121263610238
0.120430415959
0.119768602366
0.119278380444
0.118958897993
0.118808550782
0.11882781082
0.119021239914
0.119384332954
0.119909369866
0.120592114805
0.121427707494
0.122410822787
0.123535710025
0.124796263102
0.12618610627
0.127698694982
0.129327434358
0.131065817256
0.1329075808
0.134846876456
0.136878441741
0.138997753723
0.14120114717
0.143485848465
0.145849919337
0.148292119216
0.150811498378
0.153407032142
0.156077155629
0.158818719548
0.161627493861
0.164496352437
0.167416142408
0.17037486787
0.17335778984
0.176348377838
0.17932863802
0.182277384697
0.185178606451
0.188007653585
0.190751188613
0.193394388898
0.195915095088
0.198314369587
0.200579732651
0.202694001689
0.204652411336
0.2064440504
0.208050870399
0.209443328229
0.210605907873
0.211436225425
0.211964947446
0.176217595108
0.17512673865
0.173696879733
0.171664063664
0.169315374475
0.166698712302
0.16391766627
0.161036981599
0.158109855559
0.15517570892
0.152264639496
0.149400001743
0.14660047453
0.143881431936
0.141255816769
0.138734686209
0.136327568668
0.134042721735
0.131887338682
0.129867722222
0.127989428988
0.126257382695
0.124675954579
0.123249012072
0.121979937921
0.120871624168
0.11992645552
0.119146307744
0.118532538395
0.118085808187
0.11780568917
0.117691098448
0.117743261821
0.11796705327
0.118357874407
0.118907406366
0.1196118974
0.120466608944
0.121466286795
0.12260519972
0.123877215645
0.125275884922
0.126794538597
0.128426407992
0.130164770891
0.132003124678
0.133935383494
0.135956090753
0.138060612922
0.140245322383
0.14250767659
0.144846165956
0.147260314089
0.149750116916
0.152315645049
0.154956907793
0.157671629912
0.16045743908
0.163308150453
0.166215954818
0.169170018996
0.172156288359
0.175158881208
0.178160870183
0.181139669589
0.18408280521
0.186963184909
0.189773322178
0.192502082482
0.195119888663
0.197638344241
0.200040685379
0.202302408747
0.204420521189
0.206382114957
0.208166178007
0.209739600734
0.21106822389
0.212037050511
0.212683194824
0.172293905673
0.171287032516
0.169939613183
0.167999569865
0.16575377451
0.163240851518
0.160567458524
0.15779702738
0.154983368784
0.152165821396
0.149374207257
0.14663124404
0.143954683008
0.141358750173
0.138855117185
0.136453549701
0.134162359635
0.131988740014
0.129939023652
0.128018883025
0.126233477438
0.124587550602
0.123085483107
0.121731306246
0.120528684307
0.119480874827
0.118590683838
0.117860434281
0.117291918353
0.116886206519
0.116643337877
0.116562839755
0.116646444737
0.11689880169
0.117315759539
0.11788861503
0.118613828498
0.119486755438
0.120502202144
0.121654460603
0.12293738331
0.124344460023
0.125868908472
0.127503789374
0.129242156141
0.131077240788
0.133002672042
0.135012738538
0.137102608948
0.139268598362
0.141508327065
0.143820566802
0.146205584738
0.148664313287
0.151197686831
0.15380772334
0.156492484403
0.159251940613
0.162080730095
0.164972445513
0.167917568665
0.170902358785
0.173911501944
0.176929494488
0.17993276516
0.182916018698
0.185851934141
0.188737039581
0.191566979262
0.194305697045
0.196956198069
0.199506665502
0.201945200173
0.204264089952
0.206448838163
0.208474089091
0.210298848118
0.211864147014
0.213042463329
0.213850522901
0.168301573224
0.167378795781
0.166118999799
0.164285652581
0.162159501088
0.159769316088
0.157222519009
0.154579563079
0.151893948902
0.149204440448
0.146540529398
0.143924486243
0.141373467196
0.13890094379
0.136517724506
0.134232679336
0.1320532731
0.129985969099
0.128036534988
0.126210265683
0.124512131716
0.122946861315
0.121518966786
0.12023272689
0.119092136659
0.118100839535
0.117262063224
0.116578565212
0.116052535493
0.115685372888
0.115477525418
0.115429241738
0.115542804796
0.115822122281
0.116263685447
0.116858451177
0.117603054843
0.118492929963
0.119522937854
0.120687402105
0.12198017847
0.123394721151
0.124924160157
0.126561404659
0.12829929014
0.130130777247
0.132049170005
0.134048461639
0.136123542677
0.138270557272
0.140487267407
0.142772491568
0.145127193153
0.147553314176
0.150052089791
0.152628325196
0.155279567434
0.158008596623
0.160810691583
0.163680234703
0.166609099558
0.169583134579
0.172588477707
0.175614319239
0.178637366638
0.181660634176
0.184667070567
0.187628155081
0.190542880477
0.193395136622
0.196181938963
0.198897751473
0.201536397272
0.204091439156
0.206549290714
0.208882061969
0.211039352906
0.212932440002
0.214414231658
0.215430219649
0.164319419999
0.163477815969
0.162306433352
0.160586359558
0.158588117895
0.156330893752
0.15392124451
0.151415539675
0.148866290289
0.146311227602
0.143779354689
0.141292508007
0.138867389979
0.136516937047
0.134251360669
0.132078923958
0.130006537369
0.128040215839
0.126185419489
0.124447290188
0.122830794866
0.121340789166
0.119982017895
0.118759068824
0.117676294349
0.116737720518
0.115946973601
0.115307215522
0.114820983035
0.114489853658
0.114314488171
0.114296223249
0.114438934383
0.114744165641
0.115208527279
0.11582348517
0.116585790561
0.117490943293
0.118533847327
0.119708864579
0.121009875922
0.122430332534
0.123963313397
0.125601608929
0.127337853617
0.129164757916
0.131075263244
0.133063056411
0.135122694162
0.137249984546
0.139442922599
0.141700039078
0.144022875374
0.146414690251
0.148876021044
0.151415542011
0.15402927519
0.156722638687
0.159491501611
0.162329504479
0.16523079124
0.168183464192
0.171175019899
0.174206477037
0.177257134911
0.180306085762
0.183347805933
0.186366230455
0.189355481077
0.192308488363
0.19522429036
0.198103681107
0.200947918126
0.203756601682
0.206521590228
0.209217941429
0.211791433796
0.214131658172
0.216062975659
0.217346904345
0.160408292298
0.159643164184
0.158558075123
0.156952627319
0.155084435709
0.152963887049
0.150695558536
0.148331076745
0.145921494739
0.143503120951
0.141104277692
0.138746288111
0.136445431416
0.134214220563
0.132062442425
0.129997964917
0.128027374557
0.126156468159
0.12439061226
0.122734980979
0.121194686317
0.119774819761
0.118480427263
0.117316438271
0.116287565444
0.115398197335
0.114652321537
0.114053463262
0.113604458867
0.113306951213
0.113161649955
0.113171445646
0.113343641467
0.113674269046
0.114158111902
0.114791068929
0.115569051088
0.116487457255
0.117541179676
0.118724616743
0.120031696384
0.121455903872
0.12299031035
0.124627635199
0.126360324323
0.128180902807
0.130081895453
0.132056700491
0.134099546797
0.136205622299
0.138373436262
0.140600837518
0.142889683235
0.145245200135
0.147665852496
0.150165036833
0.152736424562
0.155386542294
0.158112744368
0.160908704272
0.163770646262
0.166699704384
0.169679870597
0.172693783964
0.175735281561
0.178788490224
0.181843953897
0.184891807613
0.187927719698
0.190950795806
0.193965373296
0.196979653377
0.200004145585
0.203048186495
0.20611400123
0.209186475214
0.212216997378
0.21508681704
0.217587337898
0.219308237313
0.156614306122
0.155919966323
0.154917152798
0.153424052949
0.151683762598
0.149698926016
0.147571394529
0.145347730024
0.143077231454
0.14079447766
0.138526929613
0.136295284009
0.134115374294
0.131999341868
0.129956663158
0.127994968256
0.126120700143
0.12433962135
0.122657175284
0.121078712736
0.119609601322
0.11825524189
0.117021018879
0.11591220863
0.114933863961
0.114090698239
0.113387007949
0.112826612609
0.112412591014
0.112146710324
0.112029891004
0.112065948273
0.112262982648
0.112616440613
0.113119389927
0.113768697548
0.11456034102
0.115489763901
0.116551900708
0.117741215305
0.119051711336
0.120476949912
0.122010035268
0.123643690145
0.125370145965
0.127181881155
0.129070907204
0.131030358914
0.133054273571
0.135136742487
0.137277302624
0.139472789442
0.141724858738
0.14404148623
0.146417557821
0.148871087027
0.151393521158
0.153991049674
0.156664256629
0.159415061389
0.162239298461
0.165120504549
0.168057502704
0.171035269083
0.174042899009
0.177068056267
0.180101592476
0.183137044819
0.18617288932
0.189212927486
0.192267095366
0.195350882381
0.198484203425
0.201686810617
0.204972754544
0.208338039425
0.211732012451
0.214986658928
0.217834202935
0.220042212387
0.152971580515
0.152341905849
0.151416200391
0.150030746933
0.148413319539
0.146559982235
0.144569381186
0.142482938709
0.1403480385
0.138197308873
0.136057205844
0.133947688994
0.131884107137
0.129878253282
0.127939371646
0.126074970984
0.124291486573
0.122594783011
0.120990501468
0.119484263263
0.118081752002
0.11678870349
0.115610834485
0.114553736814
0.113622756679
0.1128228824
0.112158671715
0.111634185106
0.111252718237
0.111016310814
0.110926394609
0.110987402582
0.111206928388
0.111580764597
0.112100869932
0.112764437384
0.113567475677
0.114505449851
0.115573331113
0.116765660404
0.118076530801
0.119499625224
0.121028096224
0.12265480615
0.124371643416
0.126171292681
0.12804509635
0.12998591075
0.131987949893
0.134043537601
0.136153867015
0.138314596972
0.140526269932
0.142800138244
0.145126297868
0.147526206026
0.149993074096
0.152532549907
0.1551556614
0.157842062568
0.160601716596
0.16342199652
0.166294391894
0.169206459611
0.17214631699
0.175102624971
0.178066632621
0.181033276892
0.184002709381
0.186981277073
0.189982277279
0.193025548674
0.196136803065
0.199340857392
0.202656769011
0.206075670972
0.209490269331
0.212619061796
0.215898257411
0.219950028524
0.149504654622
0.148933453941
0.148079081863
0.146795053742
0.145293613831
0.143565409241
0.141705594197
0.139750552591
0.13774569477
0.135721558164
0.133703497974
0.131710647755
0.129757837075
0.127856522477
0.126015771052
0.124243053609
0.1225448928
0.120927345683
0.119396323807
0.117957765557
0.116617688066
0.115382152657
0.114257177688
0.113248625934
0.112362087139
0.111602779514
0.110975486094
0.110484463165
0.110133163494
0.109923948093
0.109859016364
0.109943366014
0.110183241062
0.110575305353
0.111110448862
0.111786044305
0.112598078929
0.113541996861
0.114612775778
0.115805042284
0.11711296419
0.118530417282
0.120050537639
0.121666595414
0.123369812705
0.125153480307
0.127008094128
0.128926124519
0.130902603054
0.132927324586
0.135003510945
0.137125636358
0.139291741278
0.141516684046
0.143788755752
0.146125773532
0.148542231686
0.151012226853
0.153559955507
0.156174944647
0.158854882018
0.161590447097
0.164370933889
0.167183616
0.170015467382
0.172854367922
0.175690644707
0.178518412554
0.181336854714
0.184151146151
0.186972947175
0.189819508406
0.192713014826
0.195668952871
0.19869420992
0.201731373149
0.2045138849
0.207100491112
0.210413261032
0.216257123705
0.146230543352
0.145711797983
0.14492275798
0.143733075939
0.142339686694
0.140728920074
0.138992291184
0.137161367952
0.135279605929
0.133375382229
0.131472904212
0.129590419702
0.127742217902
0.12593942798
0.124190978469
0.12250435747
0.120886233377
0.119342904457
0.117880582685
0.116505530552
0.115224083226
0.114042593819
0.112967336752
0.112004394617
0.111159548804
0.110438201642
0.109845329991
0.109385347128
0.109061747326
0.108877121191
0.108834891909
0.108941331226
0.109199607837
0.109607605526
0.110155509659
0.110840783264
0.111659330955
0.112606511156
0.113677240074
0.114866259692
0.116167734033
0.117575876473
0.119083561745
0.120684961305
0.122370056964
0.124133281524
0.125964225475
0.127854697317
0.129801221069
0.131790286506
0.133826946149
0.135904981487
0.138020027627
0.140186636847
0.142411148021
0.144681059601
0.147019399268
0.149417805717
0.151882034547
0.154407429648
0.156988000632
0.159613761018
0.16227200195
0.164948134059
0.167626944136
0.170293883724
0.172936375247
0.175544958385
0.17811418129
0.18064299617
0.18313435275
0.18559268159
0.188021125857
0.190398497829
0.192699840897
0.194797465509
0.196271848936
0.196268067367
0.194562544171
0.195990591487
0.143160472232
0.142688468724
0.141958784124
0.140855980274
0.139562201743
0.138060459654
0.136438584119
0.134723628674
0.132957167617
0.131165407349
0.12937140441
0.127592490432
0.125842408811
0.124131970534
0.122469991015
0.120864006589
0.119320857945
0.117847097964
0.116449234345
0.115133830092
0.113907498758
0.112776834593
0.111748312083
0.110828176922
0.110022346964
0.109336358851
0.108775346589
0.108343843912
0.108045264223
0.10788227681
0.107860246153
0.107988756327
0.108264455131
0.108684718313
0.109242796796
0.109935298794
0.11075783635
0.111705591469
0.112773278024
0.113955860369
0.115247282984
0.116642399175
0.118133286322
0.11971580377
0.121378001937
0.123115959058
0.124918545375
0.126776257153
0.1286874627
0.130634724534
0.13262449943
0.134651689551
0.136717128791
0.138825111491
0.140977673742
0.143178867244
0.145436302155
0.147748770909
0.150116484841
0.15253462291
0.154994646448
0.157484260618
0.159988051759
0.162488423731
0.164966691778
0.167404176732
0.169783164614
0.172087573801
0.174303165066
0.176417034959
0.178415971243
0.180282224163
0.181986791209
0.183447307569
0.184594448353
0.184927770524
0.182742107293
0.175144291625
0.155926758001
0.0997591555929
0.140301245412
0.139870653195
0.139194537749
0.138171082663
0.136968363923
0.135566954279
0.134051026929
0.132443469551
0.130784086306
0.129096949013
0.12740399675
0.125721639759
0.124063084334
0.122438832909
0.120857602354
0.119326988218
0.117854004832
0.116445446756
0.11510808916
0.113848754299
0.112674284446
0.111591462147
0.110606910291
0.109726990118
0.108957713689
0.108304710247
0.107773222308
0.107367850534
0.107091916615
0.106948235558
0.106943926242
0.107090715941
0.107381736098
0.107812094877
0.108378153508
0.109075591177
0.109899638594
0.110845348949
0.111906970945
0.113079974182
0.114357640519
0.11573601851
0.117205609337
0.118764922651
0.120399625314
0.122107407367
0.123876713343
0.125695437889
0.127563903913
0.129463685497
0.13139988169
0.133378462346
0.135380056988
0.137420594911
0.139500466588
0.141622565441
0.143790839828
0.146004927448
0.148262017676
0.150555061627
0.152872663157
0.15519935873
0.157516205862
0.159801617219
0.162032248035
0.164183750886
0.166231211757
0.168149058987
0.169910194218
0.171484008847
0.172832879525
0.173906634399
0.174637213097
0.174923405142
0.17481428595
0.17255972939
0.166071193429
0.152643325899
0.125740536387
0.0747775397921
0.137656353129
0.137262250529
0.136634207515
0.13568272988
0.13456267586
0.13325293695
0.131834111695
0.13032529328
0.12876465075
0.127174192113
0.125574800097
0.123981978028
0.122408414929
0.120864314172
0.119358299892
0.117898022482
0.116490653034
0.115143197189
0.113862655104
0.112656057716
0.111530421821
0.110492663858
0.109549501643
0.108707359008
0.107972290711
0.107349965315
0.106845657248
0.106463948228
0.106208170429
0.106081672628
0.106092826709
0.106252788477
0.106555821639
0.106995012246
0.107567136047
0.108267341009
0.109090403803
0.110031520291
0.111083957425
0.112244251249
0.113504373899
0.11486235918
0.11630647497
0.117838428805
0.119441443895
0.121113546627
0.122843095839
0.124615713338
0.126430910487
0.128286197623
0.130164100638
0.132076492798
0.134014267939
0.13598183321
0.137981452937
0.140015355424
0.142085047044
0.144188666688
0.146320622141
0.148470812906
0.150624415994
0.15276217623
0.154860972802
0.156894512089
0.158833945404
0.160648191355
0.162303723622
0.163763530941
0.164984837929
0.165914929936
0.166483930906
0.166592241812
0.166088129752
0.164720095229
0.162054989334
0.157065660309
0.147814131119
0.132258797047
0.105801787557
0.0634670976402
0.135226813665
0.13486469481
0.134279574765
0.133393003241
0.132347548309
0.131121057533
0.129790677077
0.12837208207
0.126901955047
0.125400335027
0.123887129165
0.122376962267
0.120882033832
0.119412256868
0.117976161867
0.116581438759
0.115235386473
0.113945180382
0.112717995206
0.11156101489
0.110481372832
0.109486060371
0.108581828812
0.107775098042
0.107071896751
0.106477869799
0.105998249819
0.105637494534
0.105398993352
0.105287070185
0.105311390198
0.10548123392
0.105793442559
0.1062393125
0.106815416034
0.107516177641
0.108335558102
0.10926950148
0.110309481501
0.111453947772
0.112693009077
0.114027231791
0.115442437852
0.116942754601
0.118508982377
0.120137397608
0.121817617977
0.123541583266
0.125303415714
0.12709709601
0.128916404771
0.130760433812
0.132625631801
0.134513306105
0.13642514512
0.138362114027
0.140323408792
0.142304718431
0.144297335542
0.146287614467
0.148256864569
0.150181658036
0.152034353795
0.153783632284
0.155394818526
0.15682975057
0.15804591687
0.158994507808
0.159616862843
0.159838474835
0.159559099703
0.158636305805
0.156857490782
0.153889627136
0.149192496821
0.141817070884
0.130247506748
0.112575209813
0.0856508431924
0.048534213164
0.133011845773
0.132677602853
0.132130627171
0.131302273846
0.130323785963
0.129172492246
0.127922238444
0.126585650406
0.125198078867
0.123777703827
0.122343550376
0.120909402035
0.119487001673
0.118085979403
0.116714766504
0.115381070218
0.114092281751
0.112855700078
0.111678621936
0.110568328923
0.109532015048
0.108576690489
0.107709083311
0.106935550115
0.106262035256
0.105694123504
0.10523697862
0.104894778828
0.104670698742
0.104570346404
0.104605431094
0.104781811867
0.10510065143
0.105550914111
0.106128701
0.106827673566
0.107640318456