/*--------------------------------*- C++ -*----------------------------------*\
| =========                 |                                                 |
| \\      /  F ield         | OpenFOAM: The Open Source CFD Toolbox           |
|  \\    /   O peration     | Version:  v1806                                 |
|   \\  /    A nd           | Web:      www.OpenFOAM.com                      |
|    \\/     M anipulation  |                                                 |
\*---------------------------------------------------------------------------*/
FoamFile
{
    version     2.0;
    format      ascii;
    class       volScalarField;
    location    "800";
    object      pa;
}
// * * * * * * * * * * * * * * * * * * * * * * * * * * * * * * * * * * * * * //

dimensions      [0 2 -2 0 0 0 0];


internalField   nonuniform List<scalar> 
6400
(
0.134129863728
0.127993079011
0.124277412301
0.124587438582
0.161299851704
0.20293792814
0.255901004751
0.332513323716
0.42517224019
0.518323140122
0.60220090812
0.673679314259
0.732360655059
0.778379687041
0.812154862332
0.83454939318
0.846787531051
0.850236811185
0.846240909034
0.836041724849
0.820750945005
0.801342172168
0.778651805894
0.753388584228
0.726147574864
0.697427432001
0.667646905766
0.637161313742
0.606277291907
0.57526905345
0.544399293003
0.513965587962
0.484390132643
0.456322973956
0.430005577135
0.401771764458
0.355950566172
0.289684006696
0.206860151859
0.114326489804
0.0168431034449
-0.0832034795861
-0.184596913217
-0.286427107954
-0.387842801047
-0.488055402423
-0.586345631504
-0.682040445132
-0.77448739188
-0.863041188388
-0.947057388575
-1.02589072853
-1.09889565165
-1.16543221748
-1.22487710778
-1.27664237309
-1.32020048966
-1.35511661562
-1.38108475846
-1.39796633061
-1.40582573682
-1.40495971658
-1.39591454294
-1.37948852665
-1.35671593209
-1.32883363725
-1.29722887998
-1.26337662833
-1.22875649214
-1.19478098938
-1.16265707603
-1.13335829526
-1.10723952877
-1.08439229943
-1.06307235106
-1.04305151735
-1.01828303346
-0.998161441607
-0.96570977225
-0.993146638175
0.0770314921427
0.050872687836
0.0615937386263
0.0957269179337
0.175893485568
0.353318795554
0.58328974132
0.88308178112
1.2543914533
1.68024925497
2.14299646847
2.62978365991
3.13062433429
3.63672725206
4.14041758619
4.63543091273
5.11691221046
5.58119162986
6.02554008404
6.44797773346
6.84712336687
7.22206720121
7.57226166561
7.89743241142
8.19750713212
8.47256112257
8.72277449117
8.94840066568
9.14974253656
9.32713603692
9.4809385871
9.61150670673
9.7192088475
9.80469972069
9.87120255949
9.93106715822
10.0054434296
10.0808710417
10.1401565062
10.1774561685
10.1923547466
10.1846303749
10.1535305247
10.0981919989
10.0178544785
9.91186296706
9.77964387572
9.62071411092
9.43470959497
9.22141654598
8.98080322111
8.7130543365
8.41861077878
8.09821404626
7.75295469143
7.38432141695
6.99424692143
6.58514381567
6.15992336953
5.72198858821
5.27519430693
4.82376879346
4.37219522974
3.92505598169
3.48684790557
3.06178074768
2.65357533589
2.26527371017
1.89908485459
1.55625196695
1.2370102852
0.94048272453
0.664946232291
0.407428237812
0.16553386718
-0.0655380974894
-0.280996385391
-0.489193961607
-0.623707096426
-0.789180421156
-0.0114564261572
0.0154492986437
0.0472222586069
0.0993211487993
0.177972399495
0.281367509586
0.415070187353
0.587327997606
0.794551535977
1.02319354888
1.26008234059
1.49609017763
1.72481531753
1.94128026946
2.14170078118
2.32352821918
2.48531335806
2.62644725787
2.74691767383
2.8471261802
2.92775399262
2.98965892656
3.0337968658
3.06116425178
3.07275913146
3.06955601609
3.05249174106
3.02245824124
2.98030156794
2.92682181588
2.86277927294
2.78887444428
2.70567266663
2.61287496898
2.50705152323
2.37704015892
2.23124683561
2.08572724245
1.94678256122
1.81287543514
1.6830271892
1.55790051696
1.43863335457
1.32631439329
1.22192859264
1.12634233796
1.040247265
0.96410437132
0.898107057104
0.842158411012
0.795855758884
0.758482165169
0.729005712176
0.706089273354
0.688112223352
0.673207526702
0.659316317986
0.644263002973
0.625850934073
0.601977513853
0.570762950329
0.530684366709
0.480702721521
0.420368941587
0.349895468978
0.270181776143
0.182789436368
0.0898612030755
-0.00599698615093
-0.101903009284
-0.194853194203
-0.282104685192
-0.361158527988
-0.431074691789
-0.490560904216
-0.54438654611
-0.58452447099
-0.632233207211
-0.57864429512
-0.698798022732
-0.207748687374
0.00797269559837
-0.0114751521345
-0.00554746852945
0.122536296357
0.28315272188
0.456535500996
0.656639121556
0.883413466696
1.12758495752
1.38137017895
1.63992788128
1.89971519147
2.15773565628
2.41155196706
2.65933851338
2.89979531365
3.13201060587
3.35534401679
3.56934492616
3.77369597927
3.96817329765
4.1526180635
4.32691794599
4.49099537214
4.6448014576
4.78831250786
4.92152909505
5.04447321818
5.15718744461
5.25971510767
5.35210403113
5.43435254894
5.50690699171
5.57131099567
5.63145679221
5.67130378026
5.68972385436
5.69119229878
5.67576109199
5.64194007394
5.58914814736
5.51751372394
5.42733863168
5.31900268926
5.19304495235
5.05021285528
4.89146794583
4.71798111749
4.53112557043
4.33246395734
4.12372529627
3.90677186785
3.68355516039
3.45606171897
3.22624853786
2.99597090119
2.76690598256
2.54047952047
2.31780339328
2.09963449235
1.88636343022
1.67804041651
1.47443985353
1.27516119306
1.07975560196
0.887869025728
0.699380174492
0.514542289701
0.334072057025
0.159315135539
-0.00784903997111
-0.164477929479
-0.307811805856
-0.431957066019
-0.537126895793
-0.603087691215
-0.658134547074
-0.534844695535
-0.688560693553
-0.451226018367
0.161360984448
0.0072341644408
0.0253056737384
0.261527944296
0.478295665662
0.65872606905
0.842291370095
1.03592673676
1.23389275225
1.43316938214
1.63257032957
1.83052289391
2.02501462227
2.21406618659
2.39593159257
2.56911557138
2.73235727665
2.8846155418
3.02505173192
3.15300938595
3.26799231801
3.36964335403
3.45772412644
3.53209703156
3.59270897401
3.63957752076
3.67277817724
3.69243371669
3.69870173612
3.69176671749
3.6718133836
3.63900927066
3.59329750396
3.5346406203
3.4664017635
3.39559125629
3.3241024488
3.25362833293
3.18477192188
3.11718068348
3.05056430384
2.98485777852
2.919940657
2.85550155265
2.79106072644
2.72601299939
2.65965260816
2.59119791832
2.51982848879
2.44473172006
2.3651542866
2.2804541545
2.19015065281
2.09396828289
1.99187005661
1.88407477574
1.77105396348
1.65350466032
1.53229768758
1.40840400463
1.28280672642
1.15640987607
1.0299576911
0.903978407266
0.778762130047
0.654381425974
0.530743853286
0.407695235764
0.285100862392
0.163063692685
0.0418490413124
-0.0773098229823
-0.193623814066
-0.301951005644
-0.404817786906
-0.475894079217
-0.556766533045
-0.40670689048
-0.658794264141
-0.626793632437
0.560530100622
0.179469976197
0.228762265035
0.525549354811
0.730283506135
0.874339871648
1.01895979678
1.17178530404
1.32874553947
1.48976810698
1.65540634996
1.82475166494
1.99605028777
2.16743068036
2.33714189309
2.50359740867
2.66539816608
2.82134767719
2.97045006383
3.11189533134
3.24503989266
3.36938626943
3.48456408325
3.59031292933
3.68646804034
3.7729484928
3.84974801792
3.91692798867
3.97461183254
4.02298470875
4.06229617192
4.09290886172
4.11531612821
4.1299095317
4.13285973957
4.12192529659
4.09719000804
4.05925666494
4.0087007577
3.9458862666
3.87126930329
3.78559223611
3.68980776123
3.58496323135
3.47214829126
3.35246667711
3.22699791211
3.0967535202
2.96263974065
2.82543218914
2.68576297517
2.5441213854
2.40086867275
2.25626715194
2.11052149925
1.96382891008
1.81643227347
1.66866938441
1.52100955729
1.37406985679
1.22860479924
1.08546805168
0.945549661805
0.809699016223
0.678645984115
0.552940382302
0.432909881462
0.31867838213
0.210162937798
0.107246844366
0.00958759467728
-0.0824944922938
-0.16995828156
-0.249136092793
-0.327354316221
-0.375650497636
-0.456469745268
-0.25104814683
-0.607822927691
-0.837458816221
1.133087379
0.434171453104
0.515561490422
0.81245504938
0.957412281569
1.04735646057
1.14802964231
1.26081134297
1.38149938523
1.51062556629
1.64831143936
1.79299447725
1.94242164259
2.09431462359
2.24653419015
2.39710916089
2.54426160799
2.6864237024
2.82223689228
2.95053928397
3.07034849112
3.18084380245
3.2813488948
3.37131599755
3.45031176664
3.51800521421
3.5741573913
3.61861287071
3.65129281234
3.67218951538
3.68136266358
3.67893304719
3.66512099484
3.64054408256
3.60803388321
3.5690705622
3.52438872738
3.47469387158
3.42052380835
3.36207270076
3.29929392056
3.23207375024
3.16029057481
3.0838102609
3.00249857053
2.91625377588
2.82503543088
2.72888021149
2.6279076885
2.52231842259
2.41238512839
2.2984378472
2.18084578565
2.05999913757
1.93629472016
1.81012881681
1.68189996026
1.55202274322
1.420951011
1.28920601111
1.15740217718
1.02626202452
0.89661260638
0.769359658634
0.645439578763
0.52576333065
0.411146431417
0.302284695983
0.199685970641
0.103802262517
0.0147130639927
-0.0668861529964
-0.142152326796
-0.207026849575
-0.27169130546
-0.302093872259
-0.382463894721
-0.105732588959
-0.565254376371
-1.05281352499
1.86315290677
0.722186165658
0.831766674664
1.07307200019
1.13589926955
1.17479206231
1.24048666554
1.32474366369
1.42250234982
1.53344233605
1.65633061531
1.78871400226
1.92790053409
2.07136419806
2.21679263246
2.36208529908
2.50536225747
2.64496804735
2.7794644476
2.90761638742
3.02837563305
3.14086438668
3.24435975021
3.33827952041
3.42216975408
3.49569423247
3.55862579348
3.6108398129
3.65230866566
3.68310096816
3.70337386279
3.71338486924
3.71339697297
3.70362524028
3.68337880548
3.65248705434
3.61133657796
3.56055010521
3.50083559239
3.43289204065
3.35740957464
3.2751103386
3.18674417345
3.09304222005
2.99467401099
2.89222602779
2.78619469837
2.6769875673
2.56493240693
2.45029441226
2.33329900772
2.21415653539
2.09308516225
1.97032901151
1.84616952729
1.72092951055
1.59497088501
1.46868961329
1.34251096181
1.21688913269
1.0923126231
0.96931398134
0.848480143801
0.730455986397
0.615933554313
0.505633596458
0.40025301687
0.300449312509
0.206748714896
0.119675538122
0.0393211630688
-0.033542844664
-0.100384832004
-0.156625126236
-0.214891965874
-0.235200922546
-0.324816595777
0.0227068611163
-0.539641407568
-1.26966969018
2.730877055
0.999667838582
1.1463036032
1.29533455915
1.27874888369
1.28060581082
1.32286571482
1.3889579876
1.4731576843
1.57366436046
1.68778836851
1.8123526928
1.94438540812
2.08123670921
2.22052917025
2.36012648915
2.49812166282
2.63282622098
2.76275658784
2.88661914401
3.00329540667
3.1118279416
3.21140730764
3.30136026261
3.38113941244
3.45031427245
3.50856388173
3.55567039767
3.5915146482
3.61607111337
3.62940871636
3.6316918796
3.6232454534
3.60469822935
3.57686477711
3.54023350218
3.4953061723
3.44261805082
3.38266872842
3.31589250755
3.24267804483
3.16341225797
3.07850934769
2.98841289183
2.89358564276
2.79449841516
2.69161807328
2.58539311293
2.47623937383
2.3645300223
2.25059268505
2.13471476138
2.01715641878
1.89816921385
1.77801712883
1.65699625468
1.53544881687
1.41377102184
1.29241245162
1.17187042869
1.05268207167
0.935417062637
0.820675546692
0.70908685986
0.601303409069
0.49799942044
0.399823456453
0.307393728676
0.221187127509
0.141704277842
0.0688828514881
0.00334414175298
-0.0568801372013
-0.106933915879
-0.161965604093
-0.176780350357
-0.282476147254
0.132699105141
-0.527896416633
-1.46414114853
3.71769717728
1.2357053748
1.44861111574
1.48461725892
1.40483618948
1.38355804925
1.41057428105
1.46525527451
1.5414640049
1.635740873
1.74421012734
1.8632427704
1.9897523635
2.12109073674
2.25493238581
2.38921510757
2.52210694506
2.65198240762
2.77740380773
2.89710617464
3.00998451541
3.11508272846
3.21158383507
3.29880142806
3.37617228888
3.44324999884
3.499699751
3.54529348728
3.57990730531
3.60351674028
3.61620161604
3.61813380486
3.60959920334
3.59086946574
3.56206392108
3.52354162214
3.47580945195
3.41946943572
3.35517517796
3.28359533719
3.2053934106
3.12122229974
3.03172106462
2.9375062471
2.83916169989
2.73723237495
2.63222191928
2.52459129608
2.4147572056
2.3030909514
2.18991905325
2.07552675555
1.96016570739
1.8440658205
1.7274508767
1.61055671248
1.49364693585
1.3770286253
1.26105994602
1.14615245924
1.0327674448
0.92140704264
0.812610481561
0.706948488222
0.605015347356
0.507442400931
0.414847634385
0.327813876691
0.246741960428
0.172158640876
0.103799147775
0.0420287594788
-0.0155607328962
-0.0638819060542
-0.119892277938
-0.135338249398
-0.258645463339
0.22032217774
-0.533231355888
-1.62306672006
4.79013940316
1.40481179553
1.7384044822
1.65027264369
1.52860045039
1.49381633089
1.51022328604
1.55734160775
1.62828980918
1.71796226359
1.82162900348
1.93541526369
2.05622291758
2.18148162319
2.30898532058
2.43680325244
2.56322636076
2.68673251663
2.80596407009
2.91971293179
3.0269100851
3.12661758256
3.21802215923
3.30042987042
3.37326158413
3.43604885336
3.48843066548
3.53014930949
3.56104929081
3.58106876459
3.59024996702
3.58870851819
3.57676693071
3.55492484398
3.52346048791
3.48275724006
3.43328464593
3.37556431585
3.31015253555
3.23763093798
3.15860158485
3.07368538221
2.98351868165
2.88874348412
2.7899925993
2.68787422
2.58295875141
2.47576867841
2.36677177768
2.25637829837
2.1449424386
2.03276778149
1.92011708257
1.80722465826
1.69431040681
1.58159659718
1.46931791942
1.35773793047
1.24715542823
1.13791018394
1.03038178241
0.924979909475
0.822144454903
0.722342394221
0.626052857683
0.533778445141
0.446083488337
0.363389537749
0.285809813769
0.213961991954
0.147092350362
0.0849609265079
0.0249343894254
-0.0281136907969
-0.0900514135577
-0.118225788122
-0.249639992819
0.286833547355
-0.571979324391
-1.7347787465
5.91008150601
1.49521408334
2.02461923842
1.80126965482
1.65815763873
1.61426140838
1.62241908263
1.66413800958
1.73101535325
1.81649177529
1.91528346539
2.02341763285
2.13786621518
2.25620188781
2.37639232893
2.4966820704
2.61552111987
2.73152210502
2.84343570455
2.95013683024
3.05061687992
3.14397919326
3.22943619471
3.30630737742
3.37401765105
3.43209563704
3.48017231758
3.51797812983
3.54534329885
3.56218771309
3.56853794863
3.56448276426
3.5503580395
3.52651323676
3.49314231041
3.45061104762
3.39939921598
3.34005234176
3.27315941038
3.19934088622
3.11923877867
3.03350892666
2.94281476927
2.84781976396
2.74917707386
2.6475174164
2.54343647683
2.43748307669
2.33014930044
2.22186425721
2.11299305411
2.00384045208
1.89466167831
1.7856762255
1.67708229783
1.56907764583
1.46186221686
1.35565907467
1.2507153552
1.1473096952
1.04575210089
0.946374432381
0.849515763507
0.755541055661
0.664830988501
0.577634243564
0.494579915798
0.415788430859
0.340574839066
0.269652731639
0.201598178445
0.134837494295
0.0672315856529
0.00203746180371
-0.0723172883332
-0.128440068998
-0.237921896244
0.326065595579
-0.660626103566
-1.79411449059
7.03798987944
1.50634519508
2.31796330616
1.94192468594
1.7959194425
1.74365772639
1.74536745841
1.78313111457
1.84641463751
1.9275762109
2.02102131094
2.12279743362
2.23002435119
2.340475297
2.45233245694
2.56404359098
2.67423753735
2.78167655294
2.88523180166
2.98387168619
3.07665755158
3.1627427202
3.24137322687
3.31188891614
3.373724471
3.42640991336
3.46957099506
3.50292782874
3.52629635316
3.53957872762
3.54278311469
3.535973669
3.51950936591
3.49373297535
3.45883338163
3.41514783803
3.36312212711
3.30326294317
3.23612157508
3.16229065674
3.0823987668
2.99710183191
2.90707352076
2.81299457308
2.7155403778
2.61536722643
2.51309804519
2.4093089049
2.30451704719
2.19917223244
2.09365392395
1.98827147779
1.88327553925
1.77887239612
1.67523622337
1.57254021416
1.4709449992
1.37063100067
1.27179084791
1.17464778351
1.07943353723
0.986425749413
0.895855525624
0.807973546449
0.723234125149
0.641266330827
0.562853901374
0.487950936916
0.414805082073
0.343304906089
0.270971416272
0.195086650448
0.113859441439
0.0287960927703
-0.0662402570919
-0.156174844182
-0.20841686201
0.298236147414
-0.782411232268
-1.80001712456
8.13860751923
1.44778556441
2.62754364202
2.07245294962
1.94154678811
1.87949021843
1.87678811441
1.91159598493
1.97140751689
2.04793536515
2.13545187865
2.23013414031
2.3293252909
2.43104894353
2.53373246616
2.63604478865
2.73680399988
2.83492858666
2.92941517686
3.01933028034
3.10381005657
3.18206305828
3.25337444457
3.31710999636
3.37271947409
3.4197392686
3.45779417649
3.4865982279
3.50595650736
3.51576139663
3.51600747088
3.50676508246
3.48836775823
3.46108154703
3.42507298821
3.38066378412
3.32828737527
3.26843576526
3.20164254338
3.12848181439
3.04956515173
2.965534785
2.87705545768
2.784805006
2.68946260263
2.59169479136
2.49213969945
2.39139169843
2.28998689502
2.18839142154
2.08699807645
1.98612059949
1.88600667933
1.78685320855
1.68881193617
1.5920392822
1.496658933
1.40282310665
1.31066673297
1.22039100988
1.13212938417
1.04618600254
0.962699344313
0.881565760807
0.803700622804
0.728503189387
0.655921676874
0.585712920921
0.51513816529
0.441828839322
0.361628497191
0.271413062225
0.170365630906
0.0601130116541
-0.0608776080228
-0.175134236908
-0.172987618345
0.171265901107
-0.900945355345
-1.75530010985
9.18327384893
1.33536423345
2.95800335637
2.19015208269
2.09384814094
2.01912457922
2.0145011002
2.04696042209
2.10327880585
2.17482573015
2.25586525145
2.34280997521
2.43329233047
2.52562521373
2.6185021812
2.71082273662
2.80159740584
2.88990122456
2.97485592971
3.05562598075
3.13142307303
3.2015123018
3.26521990637
3.32193969473
3.37113852467
3.41236091503
3.4452317814
3.46945966117
3.48483757999
3.49124694984
3.4886693441
3.47719863934
3.45716493679
3.42874140104
3.39209090238
3.34751855761
3.29542769717
3.23627661323
3.17056760302
3.09884725979
3.02170342328
2.9397584718
2.85366162031
2.76408030928
2.67168914614
2.57715674619
2.48112904915
2.3842132608
2.28696109574
2.18985298721
2.09329699396
1.9976123409
1.90304704566
1.80979411533
1.71798377105
1.62777223431
1.53924573147
1.45256003051
1.36778149422
1.28521052325
1.20481640837
1.12690144998
1.05207211769
0.979930688278
0.911104828903
0.845256458875
0.781252589016
0.717279324827
0.649219181268
0.572218476223
0.480831176789
0.372510447273
0.248936849144
0.113588442871
-0.0334435434471
-0.16855637033
-0.173571262436
-0.0620501275272
-0.974510535608
-1.66511259569
10.151095706
1.18781299829
3.30904323237
2.2914839708
2.25199469152
2.16018877072
2.15655280954
2.18686980949
2.23966149986
2.30593078844
2.38004936865
2.45876461641
2.54004858066
2.62253160822
2.70518644657
2.78714679471
2.86761465996
2.9458191024
3.02100441934
3.09243115958
3.15938575972
3.22118971291
3.27721098058
3.32687222803
3.36965836907
3.40512317299
3.43289213731
3.45266984125
3.46423248017
3.46745403662
3.46225608711
3.44882316617
3.42752011703
3.39833293008
3.36144909834
3.31717941503
3.2659010977
3.20803595222
3.14404974134
3.07445395432
2.99980308889
2.92068923882
2.83773594437
2.75159091353
2.66291537517
2.57237252627
2.48060951923
2.38824203009
2.29583590222
2.20388438244
2.11281619927
2.0229591645
1.93456657241
1.84783894085
1.76289336531
1.67990283828
1.59891757049
1.52019962551
1.44368317867
1.36983286455
1.29912136454
1.2315513141
1.16775579708
1.10773701076
1.05152988452
0.998340407071
0.945870127638
0.890002876922
0.824440765728
0.742440661152
0.638825556566
0.513151283852
0.369571892283
0.210125772796
0.0298076154227
-0.14971816357
-0.244210688801
-0.346741028174
-0.954498509102
-1.53597370873
11.0286046296
1.02375951447
3.67599636298
2.37363598701
2.41568813673
2.30044645416
2.30117167437
2.3291743078
2.37848961543
2.43926777548
2.50615770313
2.57632125992
2.64810326642
2.72047040363
2.79268133368
2.86410376653
2.93412843451
3.00213496071
3.0674872125
3.1295394597
3.18765153956
3.24120019331
3.2895949271
3.33228681188
3.36877903066
3.39863478351
3.42148118972
3.43701867343
3.44501124936
3.4453231
3.43785165189
3.42284157245
3.4006156515
3.37107597108
3.33439091144
3.29087354975
3.24088606672
3.18482182652
3.12311366574
3.05623773692
2.98471104148
2.90908798031
2.82995703483
2.74793661298
2.6636647249
2.57779147202
2.49095849573
2.4037859481
2.31685394629
2.23066776243
2.14568371096
2.06224253442
1.98061608724
1.90100860249
1.82356407779
1.74851520142
1.67587245811
1.60604131906
1.53949660067
1.47648541512
1.41753791242
1.3630990647
1.31372255028
1.26966838458
1.23055109883
1.1943259446
1.15647952152
1.11012100562
1.04691187452
0.959570569756
0.844186408317
0.701164893762
0.531966405957
0.331355844181
0.0916404584112
-0.159936617956
-0.362926165476
-0.574095278266
-0.886890677174
-1.37485483343
11.8087936956
0.859766888843
4.05119247578
2.43550161563
2.58486034797
2.43770018728
2.44678754155
2.47192913001
2.51795716703
2.57311238081
2.63260792388
2.69406048647
2.75620672481
2.81836135456
2.88007087462
2.94093511351
3.0005306632
3.05838485822
3.11397872656
3.16675831058
3.21615536878
3.26160018905
3.30254307094
3.33846185923
3.36887769069
3.39336303033
3.41154740922
3.42312855648
3.42786291715
3.42560757501
3.41624433544
3.40006869134
3.37731001674
3.34782979612
3.3117762259
3.26945885401
3.22122702175
3.16744928041
3.10852817904
3.04490623655
2.97706291427
2.90551231312
2.83080233919
2.75351554771
2.67425783269
2.59365957444
2.51235005917
2.43095103592
2.35005874027
2.27018922778
2.19184058631
2.11536033675
2.04107950939
1.96916518481
1.89995250461
1.83361714709
1.77073770661
1.71165368878
1.65667337491
1.60656819165
1.56205464374
1.52414895312
1.49371747094
1.47080633039
1.45371091818
1.4379018021
1.41555355181
1.37665694237
1.31086334254
1.20985771954
1.06831666571
0.883002428677
0.650598822125
0.368865675812
0.0533418362098
-0.242557878721
-0.471701155724
-0.664936366588
-0.803271954692
-1.18862117241
12.4898003694
0.709231882497
4.42544695774
2.47795043883
2.75918738049
2.56981306723
2.59205639766
2.61337582111
2.65647870225
2.70594318942
2.75801421561
2.81074026738
2.86326266607
2.9152497601
2.96653467394
3.01694715914
3.06624785511
3.11410999287
3.16013034224
3.20384502579
3.24475590522
3.282344289
3.31609977128
3.34552365092
3.3701548536
3.38957419084
3.40341452645
3.41137243752
3.41320350149
3.40875704386
3.39792700175
3.3809881806
3.35807895854
3.32905115741
3.29404566902
3.25336696413
3.2073493316
3.15633538643
3.10069556652
3.04083669182
2.97719863637
2.91025312096
2.84050383351
2.76849484781
2.69479274456
2.62000523675
2.54474411155
2.46962974829
2.3952811472
2.32222995064
2.25103337413
2.18201132432
2.115742932
2.05210707267
1.99222191275
1.93630398646
1.8843265723
1.83727354384
1.7956866501
1.76098387348
1.73461779169
1.71806520729
1.71194414839
1.71485834535
1.72205025688
1.72460825824
1.70969704637
1.6625039089
1.5683793345
1.41502525434
1.19413767656
0.903998658003
0.554337265918
0.174463312705
-0.178989426862
-0.440632146704
-0.5979122875
-0.693322716631
-0.743968478961
-0.983654601858
13.0735925152
0.582023509926
4.78939651811
2.50360422289
2.93771172915
2.69486570772
2.73586045436
2.75191919097
2.79266167581
2.83640474497
2.88114424063
2.92524757448
2.96827837879
3.01025820253
3.05130381761
3.09147348441
3.13071125473
3.16883545397
3.20555777371
3.24050242194
3.27323856965
3.30329511492
3.33019806731
3.35346729299
3.37266061759
3.3873650895
3.39721829398
3.40191601663
3.40121411337
3.39495814599
3.38307208422
3.36578566731
3.34312730054
3.31496494552
3.28144006674
3.24284367098
3.19948976047
3.15169616472
3.09980291662
3.04418108708
2.98522900522
2.92337391544
2.85907017629
2.79282292281
2.72515338408
2.65664479312
2.5878888415
2.51951145029
2.4521479303
2.38636406932
2.32286964036
2.26179743259
2.20433418832
2.15056768236
2.10094033958
2.05606513375
2.01610766265
1.98261127347
1.95701230339
1.94150042175
1.93803821292
1.94776814588
1.96948789057
1.99800335888
2.02268408712
2.02730458473
1.99137711486
1.89333231972
1.71432815948
1.44326517382
1.08290822153
0.656530395456
0.210871833574
-0.190051198229
-0.484343497247
-0.647194653941
-0.718371031243
-0.742956284126
-0.758271768559
-0.765678151718
13.5647738385
0.484607189332
5.13449103411
2.51632030257
3.1186695324
2.81135206525
2.87725167148
2.88610895599
2.92528739878
2.96328253771
3.00089331992
3.036571646
3.07034029794
3.10256565013
3.13364505234
3.16386469097
3.19335232814
3.22207088848
3.24984629157
3.27638739899
3.30132688401
3.32423658826
3.34467407766
3.36217258236
3.37631295745
3.38668473177
3.3929359605
3.39475900337
3.39191212541
3.38418327167
3.37159578324
3.35439019007
3.33238268121
3.30550338912
3.27390961008
3.23786193955
3.19763764335
3.15352401115
3.10583011464
3.05489294076
3.00106921684
2.94474265835
2.88631477579
2.8262530396
2.76502599605
2.70320024611
2.64133752933
2.58009301491
2.52010559969
2.46206823767
2.40686822734
2.35502797178
2.30732086752
2.26383675439
2.22503925753
2.19189117872
2.16549113593
2.14813863055
2.14216183325
2.15019040262
2.17369095213
2.21158282942
2.25803259568
2.30062523378
2.31959340723
2.2893180669
2.18222597351
1.97518681585
1.65720071698
1.2376749728
0.75223370609
0.261197608762
-0.164780294515
-0.470752965178
-0.642061760721
-0.710447234348
-0.719333290287
-0.670473394091
-0.54841499433
-0.53967791217
13.9696073201
0.420462178069
5.45361684857
2.52058539726
3.2995329453
2.91833541202
3.01535615431
3.0146428105
3.05329681992
3.08548686925
3.11627018995
3.14379099725
3.16860451729
3.19140206443
3.21285985682
3.23349187941
3.25360993674
3.27332086598
3.29256327119
3.31112503058
3.32869798359
3.34489020649
3.35928348168
3.37142217143
3.38091744089
3.38735608732
3.3904103662
3.38977606208
3.38521025872
3.37643495828
3.36356982192
3.3468348054
3.32586803596
3.30065676142
3.27139475709
3.23831699362
3.20165480968
3.16165560941
3.11858876774
3.07275326711
3.02446165934
2.97405541266
2.92187491538
2.86836120315
2.81392463532
2.75911861438
2.70445789861
2.65078444885
2.59855787182
2.54915792578
2.5033366886
2.46111498173
2.42338919494
2.39041248657
2.36317963285
2.34330376982
2.33289056439
2.33498694858
2.35236265097
2.38695725223
2.43766154883
2.49813666763
2.55441401996
2.5839345635
2.55703789719
2.44194905472
2.21287049944
1.86000203465
1.39844351391
0.872282175228
0.348980623012
-0.0982775086634
-0.416482980109
-0.594613515081
-0.665276254695
-0.675405869619
-0.640915145429
-0.528500854695
-0.345381170434
-0.309918466693
14.2952450607
0.390629599845
5.74138525899
2.52095509938
3.47720822238
3.01551369598
3.14927233011
3.13639150048
3.17577352899
3.20204300048
3.22638974329
3.24606813759
3.26229555601
3.27605068374
3.28829033591
3.29975528905
3.31094119551
3.32209723851
3.3332714587
3.34432276363
3.35499857095
3.3649317128
3.37372044581
3.3809249274
3.38619331466
3.38910388037
3.38938495605
3.38674560548
3.38093129562
3.37162577172
3.35898089031
3.34310266851
3.32356972683
3.30039534503
3.27381953087
3.244072755
3.21134494161
3.17584029791
3.13777932865
3.09741613896
3.05500735097
3.01085737271
2.96524511455
2.91857143459
2.87119602393
2.82374126925
2.77655322714
2.73097049936
2.68761149851
2.64727548483
2.61084993992
2.57838033726
2.55090322151
2.52919094206
2.51493448157
2.51053869397
2.51897806799
2.54358047431
2.58636360042
2.64644421562
2.7171313236
2.78354760678
2.82129884045
2.79814450416
2.67952129064
2.43793581959
2.06413361407
1.57647099572
1.02351698082
0.475987018511
0.00738333615264
-0.330452067964
-0.525106675778
-0.603963298534
-0.615162185911
-0.595796434057
-0.53699194773
-0.404403618587
-0.235754108459
-0.0799872283312
14.5491644081
0.3942875724
5.9941653879
2.52161803019
3.64831600861
3.10318644292
3.27799726486
3.25043574445
3.29192029717
3.31208764696
3.33046900337
3.34264843108
3.35070883747
3.35585344019
3.35932706403
3.36209391351
3.3648322456
3.36793073514
3.3715408444
3.37558385201
3.37985972734
3.3840060935
3.38763692954
3.39034008673
3.39179637112
3.39157826315
3.38953073059
3.38537225989
3.37882579076
3.36952099798
3.35754848204
3.34290792953
3.32519370196
3.30444140848
3.28091734623
3.25484925055
3.2263951288
3.19572336154
3.16299515463
3.12842174694
3.09219868594
3.05457277485
3.01577695922
2.97618574631
2.93613583743
2.89631223284
2.85741900021
2.82040941231
2.78594323048
2.75478151481
2.72777848508
2.7053887878
2.68890679486
2.67973543643
2.68032704418
2.6938172809
2.72352884543
2.77189788143
2.83811314648
2.91564398277
2.98929922528
3.03395850018
3.01604529738
2.89935055126
2.6549000263
2.27280570163
1.77177422497
1.20126979696
0.632518738916
0.138997514679
-0.227012785496
-0.450478109725
-0.553222975313
-0.577881378421
-0.565712200205
-0.535412708709
-0.469569715959
-0.341832800297
-0.198916376087
0.147109823637
14.7387572397
0.429290685165
6.20994496103
2.52611699941
3.80948685393
3.18214256957
3.40040045404
3.3560975119
3.4010306042
3.41487085571
3.42782339259
3.43286068078
3.43321432112
3.43021665899
3.4254165448
3.4199938725
3.41480739427
3.41038015608
3.40695830429
3.40451873201
3.40290764385
3.40173786043
3.40065988646
3.39929509339
3.3973329022
3.39437583801
3.39046042621
3.38528078831
3.37855788897
3.36983933571
3.35899484727
3.34591314406
3.33031923263
3.31234518073
3.29225356466
3.27022396246
3.24636599439
3.2208330292
3.19373155383
3.1652093783
3.13540916975
3.10449683276
3.0728158001
3.0404527726
3.00821362277
2.97655893479
2.94595065531
2.91751168958
2.89191665011
2.87008005501
2.85292002576
2.84129667581
2.83688652874
2.8418112343
2.85920004695
2.8924546506
2.94409643032
3.01375604009
3.09521540439
3.17375331946
3.22440236592
3.21338283593
3.10364255062
2.86479078083
2.4850828244
1.98121926128
1.40071267141
0.81334188652
0.292433308705
-0.107523526066
-0.366747130806
-0.501037831992
-0.54773235405
-0.546435825712
-0.524762782437
-0.489493931332
-0.423298748807
-0.307190954053
-0.183832258811
0.368844826779
14.8710627639
0.492655548517
6.38810027862
2.53722011846
3.9576187104
3.25349720673
3.51524473643
3.45294988723
3.50246077572
3.50976146406
3.517861595
3.51611880342
3.5092597134
3.49861604315
3.48606724847
3.4729952066
3.460436176
3.44903934754
3.43913571058
3.43075448114
3.4237702243
3.4177418923
3.41241009598
3.4073937328
3.402368727
3.39707629217
3.39178536482
3.38607473499
3.37967965117
3.37204041253
3.36287927362
3.35179423246
3.33862985565
3.32372238447
3.30737720726
3.28970577844
3.27074861253
3.25061880859
3.22937735469
3.20711023735
3.18402193984
3.1599014152
3.13560359044
3.11105936602
3.08652745121