/*--------------------------------*- C++ -*----------------------------------*\
| =========                 |                                                 |
| \\      /  F ield         | OpenFOAM: The Open Source CFD Toolbox           |
|  \\    /   O peration     | Version:  v1806                                 |
|   \\  /    A nd           | Web:      www.OpenFOAM.com                      |
|    \\/     M anipulation  |                                                 |
\*---------------------------------------------------------------------------*/
FoamFile
{
    version     2.0;
    format      ascii;
    class       volScalarField;
    location    "800";
    object      pa;
}
// * * * * * * * * * * * * * * * * * * * * * * * * * * * * * * * * * * * * * //

dimensions      [0 2 -2 0 0 0 0];


internalField   nonuniform List<scalar> 
6400
(
0.866156755118
0.791469338172
0.637698742511
0.538918069867
0.538583153542
0.616606638939
0.774407402469
0.943153822612
1.10132880343
1.24929235781
1.38444344774
1.50154019465
1.59749191484
1.67202283642
1.72636173176
1.76231057716
1.78191989197
1.78735361382
1.78075394794
1.76412538029
1.73926644944
1.70774820215
1.67091796873
1.6299180544
1.58570926959
1.53909851627
1.49076512143
1.44128734372
1.39116613164
1.3408513071
1.29077483485
1.24142507965
1.19348972216
1.1480320097
1.1055155083
1.06032502466
0.987613075567
0.880701861565
0.745368763912
0.59328213463
0.432678086524
0.267684093379
0.100377138336
-0.0677095070294
-0.235148921421
-0.400625534192
-0.562948914321
-0.721016273182
-0.87376965374
-1.02017335213
-1.1592029602
-1.28984170359
-1.41107941263
-1.52191948472
-1.62139302308
-1.70858493029
-1.78266948611
-1.84295767296
-1.88895104108
-1.92040071498
-1.93736315617
-1.94024834443
-1.92985082522
-1.90735979531
-1.87434115486
-1.8326932401
-1.78457227684
-1.7323009856
-1.6782421523
-1.62469226945
-1.57366403125
-1.52686180927
-1.48505633182
-1.44872735324
-1.41540144505
-1.38533209643
-1.34889043573
-1.32286068435
-1.27868557727
-1.33997293639
0.653084482652
0.512153249386
0.438571917054
0.404672611753
0.496865470744
0.815312661826
1.24291697073
1.76873758402
2.38921837577
3.08967705437
3.85049876031
4.6516767392
5.47543285882
6.30698480554
7.13425642703
7.94745988698
8.73882054956
9.5023411678
10.233532522
10.9291320255
11.5868482795
12.2051482627
12.7830831084
13.3201483789
13.816171079
14.2712222458
14.685547973
15.0595187944
15.3935913703
15.6882821856
15.9441490203
16.1617554989
16.3416898745
16.4849846541
16.5966957711
16.696451305
16.8199061982
16.9478245198
17.050804285
17.1183015231
17.1494152792
17.1437487184
17.1000217146
17.0167582251
16.8926584778
16.7266091494
16.517641695
16.264944457
15.9679070591
15.6261688933
15.2396669864
14.8086868722
14.3339210222
13.8165341786
13.2582352938
12.6613511415
12.0288968112
11.3646328735
10.6730991471
9.95961143532
9.23021034363
8.49155207506
7.75073783333
7.01508362391
6.29184153682
5.58788844283
4.90940732807
4.26157840496
3.64831841501
3.07204420773
2.53358018314
2.03194381105
1.56475069373
1.12744002428
0.716290944095
0.323086343044
-0.0444219899104
-0.40205441586
-0.63900298904
-0.945538953682
0.502767746845
0.429416875898
0.449297919506
0.466091214588
0.542421953749
0.710597377511
0.94483904937
1.23866032415
1.58090611428
1.95366683258
2.33994230964
2.72600958763
3.10087652359
3.45603737574
3.78538650487
4.08489622471
4.35219010756
4.58616349235
4.78666896433
4.95424860207
5.08991240966
5.19496515387
5.27087883612
5.31920129905
5.34149397698
5.33929098523
5.31407579198
5.26726927708
5.20022792842
5.11424385085
5.0105536795
4.89030860748
4.75445443624
4.60261406879
4.42949261102
4.21735799743
3.97625197447
3.73381212055
3.5022770933
3.27923926922
3.062875779
2.854252815
2.65531851829
2.46794562878
2.29382487194
2.13444550627
1.99100465573
1.86431425614
1.75474014342
1.66216606793
1.58597056921
1.52501542813
1.4776465701
1.44171133065
1.41459372963
1.39327285622
1.37440718007
1.35444981724
1.32979503602
1.29695545902
1.25276193015
1.19457498452
1.12048950433
1.02951259858
0.921693097557
0.798183947482
0.66122877668
0.514059944927
0.360737649875
0.205871463051
0.0543950887147
-0.0890488431074
-0.220029481925
-0.336533195807
-0.435632836835
-0.524510354186
-0.588238320834
-0.662715202924
-0.565435483703
-0.783880342478
0.200605597784
0.386160650525
0.335259938722
0.316353900445
0.497374188945
0.75896980167
1.05480074022
1.39425766522
1.77392830198
2.18023626989
2.60262197774
3.03404284808
3.46851509778
3.90076077655
4.3266092486
4.7429976193
5.14769990385
5.53908580413
5.91596484233
6.27747423578
6.62298728272
6.95204376528
7.26430153699
7.55950622442
7.83747208613
8.09807158076
8.34122893953
8.56691804927
8.77515750536
8.96600907671
9.13954610803
9.29585755077
9.43495028686
9.55750595459
9.66594683894
9.7673416647
9.83605470188
9.86850811649
9.87226151834
9.84770092422
9.79235907685
9.70524408344
9.58659623271
9.43696364571
9.25702009687
9.04769924688
8.81027871312
8.54638867688
8.25800116399
7.94741573547
7.61723617098
7.27033110986
6.90977935836
6.5387986706
6.16065970354
5.77858425722
5.39563216461
5.01458102753
4.63780966808
4.26719641511
3.90404839553
3.54907495872
3.20241796738
2.86374286074
2.53238951171
2.20756884813
1.88859356713
1.57510935755
1.26734337394
0.966274040455
0.673941552996
0.393315801314
0.129253744984
-0.113563944396
-0.324836469242
-0.504322178011
-0.616426590778
-0.708356818246
-0.49825382864
-0.779089027981
-0.269501556676
0.607061309813
0.384734839246
0.391681148471
0.756547371416
1.10825843012
1.40828801571
1.71479570384
2.0379376744
2.36865209212
2.70253435872
3.03782732917
3.37170396439
3.70048264385
4.02064055826
4.32915169303
4.62343998547
4.90131561599
5.16095501093
5.40088214532
5.61993563851
5.8172289115
5.99211248709
6.14413989688
6.27303785259
6.37867932377
6.46106058109
6.52028013674
6.55652148812
6.57003270622
6.56111615677
6.53008642694
6.47726911042
6.40266099776
6.3062770453
6.19189136541
6.07286199556
5.95252677182
5.83354966508
5.71702173734
5.60242858925
5.48930373853
5.37755906306
5.26702932781
5.15723522192
5.04741613965
4.9366030668
4.82366141997
4.70733218178
4.58629273108
4.45923304188
4.3249391894
4.18237709248
4.03077266077
3.86968161096
3.69904281709
3.51920653682
3.33093115419
3.13534219071
2.93385274479
2.72804844156
2.51954777942
2.3098540919
2.10022010595
1.89154752508
1.68433760124
1.47871038898
1.27447689018
1.07130043344
0.868828767341
0.667072146234
0.466282714408
0.26835576754
0.0744532362199
-0.106723067359
-0.279337577064
-0.398163792281
-0.533257003823
-0.280032114273
-0.734731835552
-0.6125218467
1.2539410224
0.662570680347
0.71851116243
1.19595238657
1.53507035348
1.77709177942
2.0215818528
2.28107043946
2.54842275967
2.8232796531
3.10643347078
3.39618765663
3.68940575518
3.9828140938
4.27341628792
4.55852697257
4.83577758857
5.1031339252
5.35889580927
5.60167420821
5.83035811576
6.04408026053
6.24218607622
6.42420633721
6.58983440137
6.73890743048
6.87139186602
6.98737213381
7.08704233062
7.17070432729
7.2387761622
7.29185657115
7.33078107332
7.35615398871
7.3621386355
7.34452448988
7.30332509456
7.23950629562
7.15408275067
7.04773619296
6.92127396692
6.77597239156
6.61346745129
6.4355595892
6.24412061462
6.04104466525
5.82818413794
5.60727635238
5.37988085603
5.14733682649
4.9107413329
4.67095011276
4.42860143061
4.18416329635
3.93800046708
3.69045599556
3.44193801408
3.19300094094
2.94440757229
2.69716003122
2.45248897995
2.21179808206
1.97656692391
1.74822819085
1.52803555904
1.31695837665
1.11559984097
0.924212258219
0.742679633794
0.570807642673
0.407985312419
0.254706343721
0.109271907185
-0.0220845200968
-0.151707941049
-0.230062166587
-0.362253905599
-0.0121837892337
-0.647531722687
-0.975076644786
2.19744875405
1.07647362738
1.18819222076
1.67730401595
1.92287202247
2.07762354454
2.25173981036
2.44747690048
2.65698864837
2.88065443437
3.1185032503
3.3678501861
3.6248759135
3.88575073143
4.14691326487
4.40509807934
4.65735678589
4.90107855403
5.13399015696
5.35413792862
5.5598611604
5.74976398532
5.92268840548
6.07768986758
6.21401545547
6.33108517146
6.42847571003
6.5059069829
6.5632303796
6.60041925249
6.61755677354
6.61481736763
6.59249154108
6.55151633303
6.49689179815
6.43115274723
6.35548910797
6.27109155143
6.17890439463
6.07930061289
5.97223387903
5.8575344369
5.73501927213
5.60448720832
5.46573797203
5.31862592264
5.16310860963
4.99927362302
4.82734816664
4.64769554764
4.46080011997
4.26724224348
4.06766771548
3.8627570386
3.65320078199
3.43968635073
3.2229006274
3.00355008478
2.7823963375
2.56030130356
2.33827016724
2.11747992958
1.89927882142
1.68515260812
1.47665016752
1.27529808187
1.08248518137
0.899414729618
0.726983326261
0.566007227623
0.416670703769
0.280197803432
0.154647450506
0.0470087227828
-0.0598130599496
-0.107429485696
-0.237145540428
0.23795233811
-0.573564033564
-1.34491755305
3.4020239766
1.53578811209
1.69729801486
2.10559079953
2.22171704221
2.29717615966
2.41800878327
2.56995634025
2.74371313155
2.93847742516
3.1522727991
3.38116834777
3.62082613351
3.86716435099
4.1164375432
4.36522949144
4.61046335861
4.84940875127
5.07967461966
5.2991916685
5.50619006829
5.69917598376
5.87690897994
6.03838121859
6.18279913025
6.30956771151
6.41827740612
6.50869402586
6.58074960517
6.63454040852
6.67031283314
6.68848498657
6.68950733493
6.67380759494
6.64024843421
6.58844416748
6.51901071812
6.43299889186
6.33162024355
6.21607947513
6.08756714896
5.94732692185
5.79665110932
5.63680382429
5.46894740696
5.29410474172
5.11314660375
4.92679310926
4.73562840559
4.54012888675
4.34070088934
4.13772180652
3.93157857398
3.72269870217
3.51157053085
3.29875144437
3.08486552088
2.87059494476
2.65667022057
2.44386789762
2.23301579844
2.02500871596
1.8208223252
1.62152518975
1.42825865923
1.24221822727
1.06457129313
0.896431734447
0.738704322341
0.592312267138
0.457471793018
0.335554342387
0.224083885268
0.130923535523
0.0347666072084
0.00432275484426
-0.140277176953
0.459413554151
-0.528613395289
-1.71081075104
4.83616968836
1.97479964095
2.20459982374
2.47186404396
2.46348405053
2.48335276702
2.56938673161
2.69324347759
2.84507669278
3.02220060512
3.22060166919
3.43540469894
3.661984655
3.89616500645
4.13415001053
4.37248757392
4.6080610222
4.83808093331
5.06007165343
5.2718546349
5.47153032158
5.6574597188
5.82824656578
5.98272082985
6.11992391956
6.23909567699
6.33966332119
6.42123167612
6.48357581276
6.52663331167
6.55050391816
6.55545389567
6.54200890398
6.51119918831
6.46446826101
6.40268374505
6.32669178217
6.2373936314
6.13563824376
6.0221687585
5.89765134793
5.76274781427
5.61816614099
5.4646659768
5.30304218094
5.13410610524
4.95866534391
4.7774993394
4.59133487887
4.40082831689
4.20655946794
4.00903903764
3.80872899117
3.60607278028
3.40153060779
3.19561310014
2.98890710764
2.78209010414
2.57592838393
2.37127023242
2.16902948851
1.97017711531
1.7757276897
1.58674809225
1.40432956235
1.22960434618
1.06366369776
0.907564233745
0.762135570502
0.628248759812
0.505909315807
0.39628007287
0.296006235772
0.213381222808
0.122588436357
0.101593521528
-0.070111910573
0.650099634957
-0.506084055732
-2.03892461135
6.46567826016
2.34020911988
2.69201913317
2.78467751222
2.67882194922
2.66566346591
2.72913807353
2.83463205714
2.97259879965
3.13826143846
3.32599194568
3.53035327231
3.74662549143
3.97067252423
4.19878843986
4.4276303713
4.65418593254
4.87574923643
5.08990135773
5.29449409727
5.4876354877
5.66767632412
5.83319764543
5.98299935894
6.11609014214
6.23167847628
6.32916508697
6.40813585804
6.46835721262
6.50977052522
6.53249469275
6.53682076624
6.52320235047
6.49213540068
6.44384405094
6.37891543536
6.29819871888
6.20271136415
6.09356574328
5.97190539287
5.83886749065
5.69557147477
5.54311312537
5.38255024905
5.21488563089
5.04105651707
4.86193069208
4.6783045176
4.49090060514
4.30036601076
4.10727294864
3.9121240521
3.71536424973
3.51739961243
3.31862357714
3.11944701047
2.9203275325
2.72179640125
2.52446645231
2.32904256582
2.13630817701
1.94712430897
1.76240111044
1.58311823459
1.41026986104
1.24492062629
1.08808956204
0.940798957844
0.803778720721
0.677875028002
0.562869924656
0.459594348865
0.363889245365
0.284421927434
0.191761165735
0.170207794119
-0.0333660466344
0.803061314864
-0.510107507477
-2.30615161619
8.23520108704
2.59159476004
3.1622730033
3.06254595374
2.89394775942
2.86215098356
2.90876814254
3.00072145911
3.12837623346
3.28478113317
3.46311129235
3.65758861832
3.86346852512
4.07670897818
4.29375916806
4.51145330216
4.72694792782
4.93768076007
5.14134425032
5.33586845374
5.51940907508
5.69033817541
5.84723651823
5.98888691027
6.11426844319
6.22255095724
6.31309056052
6.38542346812
6.43926432564
6.4744928574
6.49116897085
6.48948595514
6.46997078955
6.43348307813
6.38053103275
6.31177446297
6.22800732772
6.13011255597
6.01903485962
5.89576398734
5.76132522793
5.61677629425
5.46320190952
5.30169778981
5.13334583361
4.95918796902
4.78020371357
4.59729289105
4.41126400359
4.22282920829
4.03260616437
3.84112654441
3.64885144847
3.45619086871
3.26352878283
3.07124963925
2.87976210899
2.68952886665
2.50106356782
2.31495565385
2.13184829399
1.95245733108
1.77751776351
1.60784940693
1.44425637171
1.28760906196
1.13873812197
0.998496629435
0.867216942895
0.745615109013
0.633024833584
0.529400932032
0.429966746512
0.343252277405
0.240188247949
0.198775090019
-0.0252429997487
0.917875052132
-0.566473057316
-2.49424365621
10.080635808
2.70997132045
3.63124080484
3.3204344696
3.12158013057
3.0763185778
3.10813181508
3.18907073189
3.30798100595
3.45581672984
3.62487384328
3.80915113599
4.00393169857
4.20532749655
4.41000936721
4.61505313541
4.81784463655
5.01602195319
5.20744243106
5.39016493325
5.56244049284
5.72270744002
5.86958868027
6.00188996985
6.11859851998
6.21888121633
6.30208318877
6.36772349706
6.41549587741
6.44525240347
6.45703011181
6.45098137467
6.42765920884
6.38768258914
6.33138995463
6.25941266933
6.17256702165
6.07178008616
5.95805543187
5.83245190873
5.69606529184
5.5500144804
5.3954309523
5.23344634938
5.06517551352
4.89169630608
4.71402861493
4.53311460733
4.34980214007
4.1648342228
3.97884625814
3.79237150296
3.60585773225
3.41968690767
3.23420368229
3.04974358187
2.86665155184
2.68532477826
2.50618341879
2.32971831556
2.15644005542
1.98694333614
1.82178759597
1.66159872148
1.50707090089
1.35871787847
1.21713123703
1.08302217409
0.955669006921
0.83529854133
0.720673246012
0.609899462997
0.498489784064
0.392478887111
0.269516260831
0.181525674739
-0.0170025588372
0.993617371904
-0.712196669939
-2.59444669701
11.9361644376
2.69574978525
4.11798761926
3.56544196794
3.36508273431
3.30543094048
3.32401903839
3.39581222656
3.50677645826
3.646115778
3.80548457454
3.97875864126
4.16132932774
4.34953961749
4.540347697
4.73112345495
4.91952402807
5.10342233828
5.28086989982
5.45007981336
5.60942104329
5.75741827017
5.89275427817
6.01427294145
6.120982055
6.21205507013
6.28683259357
6.34482034396
6.38569214097
6.40927246946
6.41557112324
6.40469489083
6.37725280492
6.33386132767
6.27484382461
6.20077961499
6.11242811191
6.01065071295
5.89638589891
5.77064385854
5.63449653836
5.48906249753
5.33549047193
5.17494144084
5.00856785834
4.83749053456
4.66277470136
4.48540756294
4.30627829129
4.12616421108
3.94572447639
3.76550037255
3.58593325986
3.40738020679
3.23014589899
3.05451435239
2.88075647704
2.70920281027
2.54016525513
2.37404485806
2.21120404271
2.05211206911
1.89721757423
1.74677244299
1.60172799552
1.46191495543
1.32734580447
1.19896447824
1.07472736868
0.953147164625
0.831648768884
0.706354457168
0.573427132659
0.435790535059
0.280164369211
0.131826303162
0.0233887217898
0.964490622965
-0.922880015724
-2.60519640785
13.7429751318
2.56599574701
4.63809093266
3.79692833989
3.62274704358
3.54448767316
3.55241470007
3.61667317077
3.72018752457
3.85089998318
3.99999659202
4.1613580408
4.33059554713
4.50437139582
4.67999480018
4.85517362166
5.02786652682
5.19620320811
5.35844641106
5.51297812984
5.65829868771
5.79303199376
5.91593298051
6.02589528826
6.12195792934
6.20331060729
6.26929774348
6.31941998654
6.35333826422
6.37086379355
6.37198711532
6.35681447488
6.32593351483
6.27983797348
6.21880336741
6.14337771519
6.05430058105
5.95240971519
5.83861289961
5.71388726274
5.57927435333
5.43586833031
5.28480199743
5.12723095599
4.96431394765
4.79718904036
4.6269467991
4.45460471404
4.28108251476
4.10718487947
3.93359242865
3.76085352216
3.58940740783
3.4195901846
3.25167322774
3.08589850879
2.92246238695
2.76165428052
2.60367425014
2.44884851197
2.29743341517
2.14970038109
2.00634585556
1.8665950986
1.73211105421
1.60277256772
1.47690723307
1.35523780586
1.23428759023
1.1097242563
0.976006023725
0.827882540588
0.663274565598
0.48474172479
0.286979881014
0.0939386857547
0.0868433421935
0.772656911329
-1.14603882357
-2.53117179208
15.4534800073
2.34828687057
5.19928558703
4.00919497394
3.89169627743
3.78870013655
3.78983205951
3.84783578953
3.94428668659
4.06619618943
4.20442006378
4.35300665919
4.5079091948
4.66619415915
4.82557626898
4.98413316264
5.14014275041
5.29200127621
5.43818873653
5.57726052128
5.70785267946
5.82869278302
5.93861248321
6.03655952094
6.12160797785
6.19296697349
6.24998678785
6.29216438796
6.31914732242
6.33073482337
6.32690630981
6.30780008829
6.27398678173
6.22582629929
6.1635752023
6.08774636239
5.99903025372
5.89821009838
5.78614071767
5.66375095739
5.53203988218
5.39206568596
5.24493277987
5.09177762223
4.93375066562
4.77199344597
4.60760955439
4.44163804066
4.27502325655
4.10859454614
3.94305676882
3.77896595155
3.61676698288
3.45677923474
3.29924636547
3.14438610154
2.99233434867
2.84335162127
2.69757809824
2.55526537228
2.41680651949
2.28179053616
2.15190054936
2.02640206659
1.90560264803
1.79002739691
1.6769714199
1.56461011785
1.44700581663
1.31673499665
1.16560992051
0.988675576063
0.787820196984
0.568663385841
0.330439844399
0.10934024803
0.117845318032
0.395690958807
-1.31438123582
-2.38101396493
17.0331312916
2.0748764691
5.800548777
4.19503506777
4.16988279493
4.0339209963
4.03324135575
4.08577248507
4.17554743573
4.28850266733
4.41533319327
4.55043694038
4.69022083878
4.83222868394
4.97462270571
5.11587091437
5.25457877257
5.3894115581
5.51906649421
5.64227203162
5.75779997646
5.86448220134
5.96122806787
6.04704069195
6.12103034145
6.18242678192
6.23058625159
6.26500376142
6.28530583145
6.29128425662
6.28284220373
6.26025148769
6.22413030145
6.17454883489
6.11179628481
6.03638397249
5.94895324101
5.85022350183
5.74098650872
5.62211081446
5.49453828677
5.3592748252
5.21737991725
5.06995491516
4.91812695865
4.7630283808
4.60576431595
4.44738840479
4.2888655521
4.131048552
3.97467472333
3.82031149145
3.66842180243
3.5193176591
3.37323511047
3.23035442228
3.09084800101
2.95492031255
2.82287232339
2.69453202007
2.57133325869
2.45291907265
2.34000600618
2.23304189363
2.13137010309
2.03448290106
1.938703032
1.83870758576
1.72506630411
1.58748800116
1.41744652501
1.21315722094
0.980761909432
0.723894847863
0.434690465308
0.151664070154
0.0318930188524
-0.105566961145
-1.35145893122
-2.16560968296
18.4598746312
1.77766557347
6.43322512999
4.34860224335
4.45646437372
4.27641950264
4.27997660648
4.32723717157
4.41082160157
4.5147256243
4.62977866779
4.75089634752
4.87502857464
5.00025406417
5.12521149298
5.24877024173
5.3698656605
5.48743054021
5.6003765982
5.70760260719
5.8080139111
5.90054469024
5.98418051189
6.05797856212
6.12108441998
6.1727476533
6.21233057204
6.23932551604
6.25334038569
6.25415842914
6.24162655727
6.21615021551
6.17832653855
6.1280164627
6.06550057329
5.99129431022
5.90600225312
5.81028505893
5.70487099833
5.59056359471
5.46823826791
5.33883576401
5.20335561385
5.0628486323
4.91840340643
4.77113167354
4.62212904196
4.47245883347
4.32310393589
4.17494157564
4.02875311023
3.88512152918
3.74455359546
3.60734391716
3.4738030232
3.34396188108
3.21843033541
3.09691809512
2.98081060586
2.87011898059
2.76533481659
2.66739437578
2.57656140368
2.49353206153
2.41747946597
2.346045252
2.27281706758
2.18817802013
2.07941429767
1.93489401784
1.74730720605
1.51592151869
1.241924025
0.915311387882
0.522634617779
0.116451543946
-0.192246602287
-0.558713683471
-1.23662791525
-1.89661068777
19.7224904641
1.48486005188
7.08339919385
4.46714334281
4.7512223623
4.51260511987
4.52768521843
4.56922139145
4.64726378302
4.74207187199
4.84512800731
4.95197615056
5.06017447821
5.16837878611
5.27572098215
5.38147649336
5.48491011147
5.58521981927
5.68152862477
5.77290253145
5.85837704971
5.93698512018
6.00778518107
6.06988550546
6.12246455581
6.16478984386
6.19622963168
6.21627367613
6.22451881033
6.22074247963
6.20476860873
6.17711336769
6.1382426611
6.08791860892
6.02638366793
5.95414738139
5.87178734762
5.77991571663
5.67920356553
5.57039188504
5.45428758169
5.33175932259
5.20373544006
5.07120269471
4.93519559895
4.79679539878
4.65707595781
4.5171081779
4.37789247713
4.2403306233
4.10526924727
3.97330993477
3.84504858074
3.72069073523
3.60098376441
3.48527009483
3.37557544167
3.27186493494
3.17419343921
3.08397808971
3.00161609097
2.92877807205
2.86641126654
2.81502052874
2.77232353837
2.73254297181
2.68463225464
2.61393406517
2.50416479952
2.34118676075
2.11459175723
1.81711111224
1.44105268925
0.979628800805
0.45715716377
-0.0312000269284
-0.403827846662
-0.738320680022
-1.01319949964
-1.58548722664
20.8183799113
1.21913167491
7.73451657528
4.55151440191
5.05367316968
4.73901454943
4.77435652452
4.80893909241
4.88230500933
4.96800622733
5.05902127914
5.15152664252
5.24373944282
5.33491961687
5.42469954982
5.51276196431
5.59870057698
5.6819768201
5.76192247068
5.83776752141
5.90867314081
5.97376558856
6.03217120811
6.08304466466
6.125593674
6.15910074544
6.18293944196
6.19659750806
6.19967141437
6.19193431371
6.17322394151
6.14407904744
6.10481454527
6.05515965106
5.99533251811
5.92582794701
5.84719096768
5.75998289481
5.66481587426
5.56236770693
5.45337617345
5.33863593562
5.21899874561
5.09538007801
4.96874639524
4.84014397413
4.7106139218
4.58123310431
4.453022987
4.32692677151
4.20386010849
4.08444640854
3.96957096413
3.85901124059
3.75457569571
3.65604119753
3.5642084539
3.4799841848
3.40351606468
3.33703882892
3.28216466757
3.24130837314
3.21540746254
3.20323943195
3.19854810306
3.18931762842
3.15699672824
3.07913133
2.93214852717
2.694808831
2.350973995
1.89403338607
1.33454916698
0.714714139869
0.125845545442
-0.31979600989
-0.598831894924
-0.782565975467
-0.875277237001
-1.24291468657
21.7513473135
0.997020117663
8.36972042154
4.60579981678
5.36234221526
4.95254081429
5.01831052528
5.04379724601
5.11363003936
5.1902163558
5.26932005382
5.34759572446
5.42397281374
5.49832731191
5.57079259136
5.6414592228
5.71025022453
5.77688974713
5.8409161074
5.90171941428
5.95857972183
6.01070908375
6.0572951829
6.09753318161
6.13065568443
6.15595610014
6.17281118478
6.18070459722
6.17923960311
6.16819467234
6.14748180121
6.11756360378
6.0785861914
6.03029183076
5.97289185342
5.90685943846
5.83270332885
5.75093580756
5.66210962148
5.56683616867
5.4657798986
5.35965848358
5.24924184908
5.13537127268
5.01893448317
4.9009421869
4.78239300412
4.66438267431
4.54793595643
4.43409646637
4.32387289609
4.21792246141
4.11759838026
4.02329345291
3.9359987213
3.85577846488
3.78340830516
3.72046001253
3.66858349873
3.63105236546
3.61045978347
3.60903717113
3.62558646006
3.65382821812
3.67927077153
3.67895821824
3.6221978346
3.47490167672
3.20493954778
2.78986068332
2.22685951106
1.54459719328
0.811136781259
0.129937951469
-0.387943625791
-0.688117111496
-0.826802681006
-0.884939965826
-0.910748182301
-0.878476811734
22.5295937909
0.82916824615
8.97359701805
4.63640933807
5.67440408649
5.15075836556
5.25810415871
5.27138313209
5.33917036409
5.40659431893
5.47408397788
5.53839821689
5.59926001766
5.65715532265
5.7127159159
5.76644111655
5.8185846067
5.86913249357
5.91782709259
5.9642126521
6.00767819073
6.04751202166
6.08295585899
6.11323916357
6.13761550995
6.15538468272
6.16592482964
6.16870550778
6.16333696931
6.14957035752
6.1274658815
6.09748101578
6.05948103866
6.0132793081
5.95908652936
5.89731805731
5.82842276146
5.75286296145
5.67113745743
5.5837957724
5.49142811896
5.39467431427
5.2942186603
5.1908283223
5.08529689661
4.97861640216
4.87173155223
4.76578222312
4.66173632566
4.56104275477
4.46454631321
4.37389786232
4.29011368586
4.21294133133
4.14353178492
4.08242129162
4.03138697467
3.99314764892
3.97085076853
3.9684991992
3.98838145439
4.02997199991
4.08589845329
4.13958003475
4.16280255907
4.11739794127
3.95967750407
3.64970091746
3.16309739666
2.50516073309
1.72273097392
0.906227476779
0.172005147786
-0.376731288749
-0.69760626262
-0.833012775295
-0.865247112847
-0.826163918817
-0.712986473336
-0.500541393841
23.1640747713
0.721051841172
9.53327691858
4.65100104307
5.98570653656
5.33219247988
5.4923696203
5.48948573932
5.55709714186
5.61522335638
5.67155705436
5.72229952571
5.7681082779
5.81004934259
5.84925067699
5.88662177092
5.92274793345
5.95787545495
5.99194669303
6.02465060612
6.05547143888
6.08376352513
6.1088155226
6.12988611723
6.14624712513
6.15720253224
6.16213206231
6.16048460224
6.1518833639
6.13596631423
6.11307490245
6.08372659878
6.0473821491
6.00396600844
5.95372011291
5.89698661415
5.83412546943
5.76553174129
5.69164144582
5.61294266604
5.5299527216
5.44323583873
5.35338141688
5.26109532602
5.16707759935
5.07229140779
4.97762870862
4.88447573081
4.79343250552
4.70711900583
4.62647948086
4.55199851473
4.48500770421
4.42534419943
4.37462369662
4.33448966346
4.30797759774
4.29901828397
4.31163107999
4.34910694248
4.41056885089
4.48830145815
4.56328091512
4.60346565657
4.56438504746
4.39572445756
4.05251772863
3.51101997461
2.78438221775
1.93284006239
1.05965389769
0.286745329823
-0.286984926485
-0.626540186014
-0.773872963824
-0.810586604469
-0.782201615763
-0.672850591898
-0.497771301745
-0.116282143662
23.6672080277
0.673933830302
10.0389518032
4.65747509745
6.29108265295
5.49644099595
5.71964241078
5.69615516083
5.76580480355
5.81437109843
5.86016183169
5.89780952228
5.9291447838
5.95574946731
5.97925039274
6.00096745583
6.02181679924
6.04230101028
6.06255659423
6.08240270744
6.1014022132
6.11896642801
6.13442523808
6.14706317598
6.15616881011
6.16105119556
6.16109270698
6.15574057764
6.14462254673
6.1273754399
6.10448929209
6.07637258703
6.0423568634
6.00237430306
5.95670054486
5.90564130586
5.8494760473
5.78852289419
5.72313552118
5.65372813404
5.58072846037
5.50463226047
5.42593477221
5.34525417366
5.26323250232
5.18086611869
5.09894624695
5.01931367932
4.94313408022
4.87219799082
4.80753434519
4.74951285837
4.69951198347
4.65820725887
4.62797346972
4.61170026347
4.61359448181
4.63823879783
4.68891746083
4.76525721589
4.8587697037
4.94934197608
5.0020253206
4.96863990727
4.79437954839
4.43147386057
3.85652005732
3.0874311717
2.19152655746
1.27765451276
0.468563496833
-0.139424326177
-0.511260140189
-0.681639170188
-0.72828176791
-0.718898728838
-0.66385189603
-0.53488685764
-0.3717297071
0.268244828893
24.0519254514
0.685862748134
10.4839415185
4.66318045768
6.58482222177
5.64412680966
5.93823710155
5.88978060369
5.96387836354
6.00248995782
6.03849569806
6.06358122765
6.08111991971
6.09309716613
6.10165138655
6.10850939704
6.1149140844
6.1216184548
6.12894449066
6.13682123732
6.1448731694
6.15256322806
6.15925842925
6.16426720867
6.16689308597
6.16645115719
6.1623346627
6.15400664043
6.14111295151
6.1233342932
6.10121162313
6.07500019276
6.04401155946
6.00814978547
5.96768678644
5.92290221711
5.87401684792
5.8212886711
5.76497412353
5.70541423063
5.64293997446
5.57794325915
5.51084535983
5.44213788129
5.37265364121
5.30312203059
5.23513362481
5.17012937866
5.10903324416
5.0536545102
5.00494206435
4.96374416899
4.93167774278
4.91033937975
4.90303713015
4.9138189058
4.9474571654
5.00761763861
5.09391461675
5.19812977374
5.29946081375
5.36204850716
5.33564294238
5.16322317842
4.79482747552
4.20628772892
3.41607218524
2.49283851487
1.54582502199
0.696872682278
0.0419115503312
-0.380420263532
-0.595453613259
-0.670326870402
-0.676247874839
-0.652886345311
-0.592058589437
-0.468612289438
-0.328468496692
0.647942843672
24.3309839004
0.752612959864
10.8644572572
4.67439683453
6.86118284039
5.77671047508
6.14620564783
6.06915646706
6.15004863707
6.17822511427
6.20532603423
6.21841192422
6.2229124804
6.22104325679
6.21548335183
6.20835514907
6.20122077344
6.19507617072
6.19041652302
6.18725468556
6.1852635315
6.18395681966
6.18273545622
6.18092976757
6.17785290396
6.17282701973
6.16526167953
6.15466026018
6.14072216077
6.12322676147
6.10257103003
6.0789223959
6.05162886925
6.02056763873
5.98597605639
5.94808742341
5.90704662635
5.86307831211
5.81635078318
5.7671015864
5.71557468132
5.6620362243
5.60705777679
5.55052515258
5.49424978276
5.43873497013
5.38474053995
5.33430368827
5.2883453186
5.24870841147
5.21649320971
5.19299948489
5.18025831239
5.18086449069
5.19902713055
5.23935373205
5.30567442132
5.39801005889
5.50844754395
5.61682948905
5.68740023778
5.66987574931
5.50622223897
5.14493145788
4.55944521794
3.7654915971
2.82848605792
1.85459215796
0.963975190384
0.254589115398
-0.227906059009
-0.498186002869
-0.613101151892
-0.639745429835
-0.628450083818
-0.598503303199
-0.537000495254
-0.425182038696
-0.304556654875
1.01849735386
24.5165174557
0.868534624233
11.1792009726
4.69608116351
7.11484187671
5.896208832
6.34137863331
6.23350843143
6.32314664862
6.34042784794
6.35958204193
6.36124617184
6.35353443488
6.33865523184
6.31987804532
6.29969749067
6.27998483037
6.26197067029
6.24630586502
6.23305758075
6.22194184212
6.21252565498
6.20424033797
6.1964346168
6.18842200621
6.17953067077
6.16918507435
6.15696829336
6.14262038582
6.12605123447
6.10761927009
6.08729017662
6.06444207425
6.03888683431
6.01080050278
5.98038853084
5.94773350537
5.91299703534
5.87627216359
5.83770013294
5.79760335952
5.75568943103
5.71319017005
5.66997939917
5.62685214917
5.58500298908
5.54511972641
5.5093040538
5.47880394577
5.45548502254
5.4406165554
5.43594347313
5.44408613186
5.46857164043
5.51399000387
5.58409667328
5.67930315855
5.79256154855
5.90484580037
5.9819528081
5.9746795467
5.82539845997