/*--------------------------------*- C++ -*----------------------------------*\
| =========                 |                                                 |
| \\      /  F ield         | OpenFOAM: The Open Source CFD Toolbox           |
|  \\    /   O peration     | Version:  v1806                                 |
|   \\  /    A nd           | Web:      www.OpenFOAM.com                      |
|    \\/     M anipulation  |                                                 |
\*---------------------------------------------------------------------------*/
FoamFile
{
    version     2.0;
    format      ascii;
    class       surfaceScalarField;
    location    "800";
    object      phi;
}
// * * * * * * * * * * * * * * * * * * * * * * * * * * * * * * * * * * * * * //

dimensions      [0 3 -1 0 0 0 0];
oriented        oriented;


internalField   nonuniform List<scalar> 
12640
(
2.36587757955e-05
-2.36587757845e-05
3.4204924245e-05
-1.05461486635e-05
3.7110216023e-05
-2.90529200558e-06
2.75977799842e-05
9.51243584726e-06
5.53066624491e-06
2.2067113514e-05
-2.69298453345e-05
3.24605112802e-05
-5.93428566745e-05
3.24130110577e-05
-9.1040426507e-05
3.16975695507e-05
-0.000122157729213
3.11173024293e-05
-0.000152421551369
3.02638218853e-05
-0.000181539743755
2.91181921273e-05
-0.000209286379954
2.77466359495e-05
-0.000235508950068
2.62225698778e-05
-0.000260120127426
2.461117713e-05
-0.000283085582908
2.2965455265e-05
-0.000304411664803
2.13260816847e-05
-0.000324134301696
1.97226366886e-05
-0.000342309621528
1.81753196323e-05
-0.000359006384295
1.66967625705e-05
-0.000374300123635
1.52937391451e-05
-0.000388268790872
1.39686670428e-05
-0.000400989654862
1.27208637964e-05
-0.000412537208873
1.15475538157e-05
-0.000422981856163
1.04446470922e-05
-0.000432389177207
9.40732084261e-06
-0.000440819616261
8.43043885031e-06
-0.000448328457778
7.50884130669e-06
-0.000454965991915
6.63753392205e-06
-0.000460777791695
5.81179955771e-06
-0.000465805041511
5.02724958691e-06
-0.000470084870077
4.27982832811e-06
-0.000473650656258
3.56578593609e-06
-0.000476532255089
2.88159857439e-06
-0.000478755962677
2.22370732334e-06
-0.000480344150089
1.58818713524e-06
-0.000481315360519
9.71210146637e-07
-0.000481682953035
3.67592222108e-07
-0.000481456124154
-2.26829178349e-07
-0.000480642987447
-8.13137013315e-07
-0.000479255316661
-1.38767109366e-06
-0.000477309055288
-1.94626168899e-06
-0.000474819841958
-2.48921364617e-06
-0.0004718017863
-3.01805598272e-06
-0.000468267048046
-3.53473857644e-06
-0.000464225715075
-4.04133330242e-06
-0.000459685791171
-4.53992423353e-06
-0.000454653236449
-5.03255506066e-06
-0.000449132049207
-5.52118757738e-06
-0.000443124394539
-6.00765501139e-06
-0.000436630789813
-6.49360506799e-06
-0.000429650356812
-6.98043335203e-06
-0.000422181146657
-7.46921050254e-06
-0.000414220537729
-7.96060928575e-06
-0.000405765698777
-8.45483930716e-06
-0.000396814100087
-8.95159905584e-06
-0.000387364045066
-9.45005538357e-06
-0.000377415184149
-9.94886128982e-06
-0.000366968962925
-1.04462215932e-05
-0.000356028948298
-1.09400150076e-05
-0.000344600969933
-1.14279787412e-05
-0.00033269301021
-1.19079601097e-05
-0.000320314774521
-1.23782360708e-05
-0.000307476875508
-1.28378994039e-05
-0.000294189569304
-1.32873065891e-05
-0.000280460991106
-1.37285785923e-05
-0.000266294846627
-1.41661448658e-05
-0.000251687527569
-1.46073194515e-05
-0.000236624653745
-1.50628742107e-05
-0.000221077098345
-1.5547555792e-05
-0.000204996617463
-1.6080481268e-05
-0.000188311426137
-1.66851917153e-05
-0.000170922272545
-1.73891539808e-05
-0.000152700010159
-1.82222627796e-05
-0.000133488214178
-1.92117963826e-05
-0.000113120627073
-2.03675875182e-05
-9.14653003076e-05
-2.16553271965e-05
-6.84852058138e-05
-2.29800949093e-05
-4.43173464611e-05
-2.416785981e-05
-1.98436048376e-05
-2.44737422789e-05
-1.9843605226e-05
1.24501545889e-05
-3.61089318685e-05
1.04015365966e-05
-8.49753144646e-06
-9.70394160026e-06
1.72001859497e-05
-3.89273103272e-05
3.87358044606e-05
-6.70160401236e-05
5.01558431686e-05
-9.39984292208e-05
5.94429001936e-05
-0.000124032076955
6.2446658588e-05
-0.000155144533731
6.28100261054e-05
-0.00018598954365
6.19623121283e-05
-0.000215937174258
6.02114522672e-05
-0.000244608869443
5.77898870942e-05
-0.000271759123852
5.48968901381e-05
-0.000297239085717
5.17025315329e-05
-0.000320973931725
4.83460229251e-05
-0.000342944948163
4.49364715009e-05
-0.000363174504382
4.15556376977e-05
-0.000381713591385
3.82617234966e-05
-0.000398631784244
3.50935122892e-05
-0.000414009429598
3.20744077313e-05
-0.000427931786159
2.92160955043e-05
-0.00044048480534
2.6521686031e-05
-0.000451752235432
2.39882936822e-05
-0.000461813755163
2.1609073351e-05
-0.000470743881188
1.93747729049e-05
-0.000478611437537
1.72748769889e-05
-0.000485479418881
1.52984199729e-05
-0.000491405117476
1.34345396878e-05
-0.000496440415948
1.16728321608e-05
-0.000500632173478
1.00035568598e-05
-0.000504022656282
8.41773214067e-06
-0.000506649980585
6.90715238726e-06
-0.000508548538268
5.46434335049e-06
-0.000509749374143
4.08243418593e-06
-0.00051028039348
2.75472636953e-06
-0.000510165767864
1.47356123568e-06
-0.000509425132054
2.30574025926e-07
-0.000508085914775
-9.7162535667e-07
-0.00050618591823
-2.12682604778e-06
-0.000503760232553
-3.23882299985e-06
-0.000500833590827
-4.31431315569e-06
-0.000497420922866
-5.35892996833e-06
-0.000493533487888
-6.37664896956e-06
-0.000489180409867
-7.37113432972e-06
-0.000484369154038
-8.34599475841e-06
-0.00047910564524
-9.30484243317e-06
-0.000473394283783
-1.02512860495e-05
-0.000467237946372
-1.11888928097e-05
-0.000460638009958
-1.21211243578e-05
-0.000453594419324
-1.30512459895e-05
-0.000446105814354
-1.39822104112e-05
-0.000438169728173
-1.49165198831e-05
-0.000429782864055
-1.58560750002e-05
-0.000420941451975
-1.68020217238e-05
-0.000411641679099
-1.77546125709e-05
-0.000401880178207
-1.8713100314e-05
-0.000391654548893
-1.96756850927e-05
-0.0003809638748
-2.06395357566e-05
-0.000369809191339
-2.16009054574e-05
-0.000358193849451
-2.25553572784e-05
-0.000346123716431
-2.34981121712e-05
-0.000333607149865
-2.44245270651e-05
-0.000320654681879
-2.53307044713e-05
-0.000307278353646
-2.6214228031e-05
-0.000293490646224
-2.70750144272e-05
-0.000279302966084
-2.79162591265e-05
-0.00026472365813
-2.87454532335e-05
-0.00024975552557
-2.95754524026e-05
-0.000234392859071
-3.04255411168e-05
-0.000218618075422
-3.13223398264e-05
-0.000202397987898
-3.23005691871e-05
-0.000185679923733
-3.34032562575e-05
-0.000168388220806
-3.46808572898e-05
-0.000150421946739
-3.61885372164e-05
-0.000131655730992
-3.79780125016e-05
-0.000111946374943
-4.0076943935e-05
-9.1148248813e-05
-4.24534536891e-05
-6.91602493344e-05
-4.49680947475e-05
-4.61158606633e-05
-4.72122488191e-05
-2.28050794619e-05
-4.77845238714e-05
-4.26486849509e-05
-9.4503934704e-06
-2.66585371519e-05
-3.18536261805e-05
1.39057015061e-05
-5.72039394154e-05
4.25504992584e-05
-8.15559613551e-05
6.30878263727e-05
-0.000108417867133
7.70177488449e-05
-0.000135050209497
8.60752424182e-05
-0.000162694158449
9.00906073807e-05
-0.000190764891085
9.08807585743e-05
-0.000218387435822
8.95848566926e-05
-0.000244997374946
8.6821391216e-05
-0.000270252257044
8.30447690134e-05
-0.000293955523925
7.86001568401e-05
-0.000316010713835
7.37577212609e-05
-0.000336391453331
6.87267622409e-05
-0.000355119856461
6.36648744478e-05
-0.000372250179862
5.86859609163e-05
-0.000387856410915
5.38679543635e-05
-0.000402023043606
4.92601447959e-05
-0.00041483846075
4.48898246865e-05
-0.000426390397275
4.07680318404e-05
-0.000436763007975
3.68942965354e-05
-0.00044603512605
3.3260411563e-05
-0.000454279371799
2.98533188969e-05
-0.000461561844008
2.66572449111e-05
-0.000467942193224
2.36552259918e-05
-0.000473473931591
2.08301581256e-05
-0.000478204877135
1.81654850057e-05
-0.000482177661623
1.56456164196e-05
-0.000485430255652
1.32561506466e-05
-0.000487996492829
1.09839690711e-05
-0.000489906592997
8.81725229445e-06
-0.000491187628271
6.74537835707e-06
-0.000491863761511
4.75856714278e-06
-0.00049195647393
2.84743849856e-06
-0.000491486373292
1.0034602917e-06
-0.000490476693628
-7.79105945561e-07
-0.000488951087676
-2.49723162855e-06
-0.000486925380655
-4.15253338615e-06
-0.00048441002777
-5.75417621538e-06
-0.000481416201234
-7.30814001941e-06
-0.000477954947808
-8.82018373282e-06
-0.000474036101157
-1.0295495956e-05
-0.000469668141759
-1.17390940743e-05
-0.000464858163115
-1.31559737451e-05
-0.000459611836782
-1.45511691196e-05
-0.000453933369961
-1.59297532179e-05
-0.000447825472576
-1.72967905555e-05
-0.000441289353182
-1.86572441066e-05
-0.000434324762443
-2.00158370949e-05
-0.000426930101173
-2.13768720433e-05
-0.000419102607703
-2.27440137269e-05
-0.000410838635129
-2.41200479443e-05
-0.000402134023047
-2.55066341888e-05
-0.000392984560035
-2.69040759625e-05
-0.000383386523183
-2.83111375587e-05
-0.000373337269488
-2.9724939177e-05
-0.000362835842345
-3.11409633031e-05
-0.00035188354494
-3.25532032627e-05
-0.000340484424022
-3.39544786098e-05
-0.000328645603181
-3.53369334214e-05
-0.000316377399802
-3.66927308652e-05
-0.000303693160017
-3.80149446722e-05
-0.000290608755818
-3.92986326539e-05
-0.00027714168867
-4.05420819916e-05
-0.00026330976689
-4.17481813282e-05
-0.000249129339519
-4.29258810145e-05
-0.000234613095473
-4.40916968619e-05
-0.000219767346921
-4.52712900692e-05
-0.000204589073696
-4.65006134496e-05
-0.000189062554831
-4.78270884359e-05
-0.000173155639641
-4.93101718258e-05
-0.000156816320762
-5.10201765332e-05
-0.000139969764926
-5.30350934067e-05
-0.000122515730294
-5.54320474766e-05
-0.000104326831442
-5.82658431213e-05
-8.52540814055e-05
-6.15262040519e-05
-6.51613202229e-05
-6.50608562222e-05
-4.40066977693e-05
-6.83668715615e-05
-2.20595645273e-05
-6.97316574542e-05
-6.47082496447e-05
-2.80885486458e-05
1.43000976135e-06
-5.56157549503e-05
4.14329076742e-05
-8.13313708426e-05
6.82661151479e-05
-0.000106877836181
8.8634291663e-05
-0.000132673217658
0.000102813130234
-0.000158186950452
0.000111588975101
-0.000183583674889
0.000115487331697
-0.000208579736462
0.000115876820019
-0.000232757611115
0.000113762731214
-0.000255802113031
0.000109865892994
-0.00027751335608
0.000104756011921
-0.000297789321118
9.88761217315e-05
-0.000316600035413
9.2568435406e-05
-0.000333964469654
8.60911963265e-05
-0.000349932341705
7.96327463409e-05
-0.000364570608575
7.33242276236e-05
-0.000377953943685
6.72512893082e-05
-0.000390158401723
6.14646026626e-05
-0.000401257499662
5.59889224525e-05
-0.000411320030216
5.08305622154e-05
-0.000420409046856
4.59833129939e-05
-0.000428581592494
4.14329570116e-05
-0.000435888866621
3.71605928323e-05
-0.000442376626671
3.31450047608e-05
-0.000448085695095
2.93642942128e-05
-0.000453052496687
2.57969595035e-05
-0.000457309584746
2.24225728458e-05
-0.000460886134613
1.92221660563e-05
-0.00046380839479
1.61784105867e-05
-0.00046610010435
1.3275678381e-05
-0.000467782901957
1.05000496431e-05
-0.000468876685358
7.83916148558e-06
-0.000469399684227
5.28156572925e-06
-0.000469368339309
2.81609328346e-06
-0.000468799145242
4.34265920182e-07
-0.000467714331728
-1.86391977353e-06
-0.000466131669493
-4.07989417891e-06
-0.000464061680116
-6.22252308662e-06
-0.000461516778256
-8.29907839894e-06
-0.000458508543296
-1.03163753124e-05
-0.00045504776165
-1.22809657109e-05
-0.000451144118126
-1.41991398203e-05
-0.000446806096752
-1.60771157872e-05
-0.00044204090197
-1.79211688737e-05
-0.000436854373933
-1.97376975028e-05
-0.000431250901045
-2.15332264602e-05
-0.000425233344452
-2.33143475014e-05
-0.000418802993377
-2.50875955433e-05
-0.000411959571562
-2.68592592708e-05
-0.000404701315544
-2.86351284311e-05
-0.000397025143846
-3.04201857963e-05
-0.000388926932819
-3.22182593522e-05
-0.000380401908457
-3.40316589323e-05
-0.000371445154516
-3.58608302966e-05
-0.000362052225635
-3.77040668357e-05
-0.000352219840864
-3.95573243552e-05
-0.000341946619155
-4.14141854231e-05
-0.000331233804827
-4.32660180117e-05
-0.000320085919284
-4.51023645765e-05
-0.000308511276056
-4.6911577082e-05
-0.000296522288895
-4.86817184579e-05
-0.000284135494105
-5.04017399011e-05
-0.000271371243227
-5.20628839661e-05
-0.000258252991197
-5.36603344578e-05
-0.000244806171035
-5.51950019191e-05
-0.000231056597659
-5.66754548162e-05
-0.000217028588118
-5.81197068177e-05
-0.000202742305147
-5.95575734491e-05
-0.000188211198602
-6.10317203908e-05
-0.000173438986506
-6.25993009178e-05
-0.000158415794051
-6.43333646516e-05
-0.000143114804147
-6.6321166795e-05
-0.000127488725003
-6.86611728919e-05
-0.000111464246291
-7.14565265145e-05
-9.49343626989e-05
-7.47957270236e-05
-7.77546481743e-05
-7.87059188667e-05
-5.97560504613e-05
-8.30594542195e-05
-4.07234459704e-05
-8.7399476306e-05
-2.05994919328e-05
-8.98556117337e-05
-8.53077417141e-05
-3.64635987535e-05
3.78936102266e-05
-6.56837784181e-05
7.06530875974e-05
-9.32407867514e-05
9.58231234962e-05
-0.000119583157664
0.000114976662517
-0.000144847667865
0.000128077640348
-0.000169052828913
0.000135794136055
-0.000192372330672
0.000138806833357
-0.000214733158078
0.000138237647324
-0.000235993688745
0.000135023261776
-0.000256048803929
0.00012992100807
-0.000274842789597
0.000123549997475
-0.000292366776305
0.00011640010832
-0.000308646599005
0.000108848257982
-0.00032372954046
0.000101174137651
-0.00033767339439
9.35766001355e-05
-0.000350538790781
8.61896238746e-05
-0.000362384523655
7.9097022035e-05
-0.000373265169752
7.23452486083e-05
-0.000383230231804
6.59539843474e-05
-0.000392324165915
5.99244961634e-05
-0.000400586835097
5.42459820068e-05
-0.000408054103049
4.89002247893e-05
-0.000414758414924
4.38649045255e-05
-0.000420729300545
3.91158901938e-05
-0.000425993786677
3.46287801491e-05
-0.000430576729202
3.03799018251e-05
-0.000434501084692
2.63469281227e-05
-0.000437788141826
2.25092229676e-05
-0.000440457731024
1.88479995509e-05
-0.000442528421724
1.5346368837e-05
-0.00044401771432
1.19893419811e-05
-0.000444942232066
8.76367896254e-06
-0.00044531788493
5.65721830774e-06
-0.00044515991938
2.65812743621e-06
-0.000444483330211
-2.42323554697e-07
-0.000443307721353
-3.0395289415e-06
-0.000441650245166
-5.7373706817e-06
-0.000439521723554
-8.35104501602e-06
-0.000436933766355
-1.08870359222e-05
-0.000433897551706
-1.33525902873e-05
-0.000430423658088
-1.57548596608e-05
-0.000426521832789
-1.81009654521e-05
-0.000422200826743
-2.03981221724e-05
-0.00041746824453
-2.26537514267e-05
-0.000412330394114
-2.48755482651e-05
-0.000406792137539
-2.70714833834e-05
-0.000400856754862
-2.92497305335e-05
-0.000394525840172
-3.14185105904e-05
-0.000387799252888
-3.35858469201e-05
-0.000380675149747
-3.57592319405e-05
-0.000373150123005
-3.79452129159e-05
-0.000365219467598
-4.01489151436e-05
-0.000356877593654
-4.23735332696e-05
-0.000348118590084
-4.46198342683e-05
-0.000338936931574
-4.68857257586e-05
-0.000329328304326
-4.91659520235e-05
-0.000319290508726
-5.14519814546e-05
-0.000308824382165
-5.37321450109e-05
-0.000297934662081
-5.59920851081e-05
-0.000286630721917
-5.82155176961e-05
-0.00027492711667
-6.03853241608e-05
-0.000262843802866
-6.24850541587e-05
-0.000250406053466
-6.45006338193e-05
-0.000237643891037
-6.64224973338e-05
-0.000224591184232
-6.82477091658e-05
-0.000211284003523
-6.99826359564e-05
-0.000197759276317
-7.16444344453e-05
-0.000184051722215
-7.32651279616e-05
-0.000170191694538
-7.48917484655e-05
-0.000156202739056
-7.65882567846e-05
-0.000142097016927
-7.84390871502e-05
-0.000127872026511
-8.0546157565e-05
-0.000113507560329
-8.30256394091e-05
-9.89585968947e-05
-8.60054902636e-05
-8.41440736978e-05
-8.96102505182e-05
-6.89331982182e-05
-9.39167946242e-05
-5.31474662395e-05
-9.88451864362e-05
-3.64780210739e-05
-0.000104068921698
-1.86208314669e-05
-0.000107712801559
-0.000103928573294
-3.62821913089e-05
7.41758005712e-05
-6.83503408912e-05
0.000102721237069
-9.7287125237e-05
0.000124759907794
-0.000123925978797
0.000141615516015
-0.000148620945606
0.000152772607085
-0.00017161587418
0.000158789064554
-0.000193177617526
0.000160368576629
-0.000213417357365
0.000158477387088
-0.000232384247469
0.000153990151802
-0.000250122722314
0.000147659482834
-0.000266683940637
0.000140111215712
-0.000282126812738
0.000131842980329
-0.000296513366949
0.000123234812095
-0.000309903679804
0.000114564450401
-0.000322352361686
0.000106025281907
-0.000333907031261
9.77442933316e-05
-0.000344608372671
8.97983633206e-05
-0.000354491112942
8.22279887486e-05
-0.000363585330428
7.50482016952e-05
-0.000371917702974
6.82568685655e-05
-0.000379512502929
6.184078181e-05
-0.000386392291225
5.57800129268e-05
-0.000392578346032
5.00509591667e-05
-0.00039809089551
4.46284394987e-05
-0.000402949227079
3.9487111536e-05
-0.000407171732498
3.4602407052e-05
-0.000410775930871
2.99511262949e-05
-0.000413778499574
2.55117914568e-05
-0.000416195334684
2.12648344353e-05
-0.000418041637212
1.71926711269e-05
-0.000419331970806
1.32796753234e-05
-0.000420080291911
9.51199980047e-06
-0.000420300328845
5.8772549604e-06
-0.000420007012094
2.36481038915e-06
-0.000419217837696
-1.03149825625e-06
-0.000417945160051
-4.31220689434e-06
-0.00041619943055
-7.48310049332e-06
-0.000413994814947
-1.05556609339e-05
-0.000411343551217
-1.353829997e-05
-0.000408257154541
-1.6438987286e-05
-0.000404746545416
-1.92654691108e-05
-0.000400821976765
-2.20255344329e-05
-0.000396492881297
-2.47272179732e-05
-0.000391767681683
-2.73789513783e-05
-0.000386653578971
-2.99896513177e-05
-0.000381156331558
-3.25687311432e-05
-0.000375280041184
-3.51260212593e-05
-0.000369026968501
-3.76715836328e-05
-0.000362397406562
-4.02154092244e-05
-0.000355389644953
-4.27669939247e-05
-0.000348000058842
-4.53347994105e-05
-0.000340223355843
-4.7925618537e-05
-0.000332053007352
-5.05438821658e-05
-0.000323481877358
-5.31909646811e-05
-0.000314503046273
-5.58645572726e-05
-0.000305110805795
-5.85581929447e-05
-0.000295301773115
-6.12610145871e-05
-0.000285076069259
-6.395784933e-05
-0.000274438448864
-6.66297059724e-05
-0.000263399288578
-6.92546784549e-05
-0.000251975459972
-7.18091532401e-05
-0.000240190718181
-7.42697964209e-05
-0.000228075937522
-7.66154149438e-05
-0.000215668536023
-7.88298992908e-05
-0.00020301204473
-8.09042009072e-05
-0.000190153758674
-8.28409224503e-05
-0.000177144698831
-8.46534947139e-05
-0.000164035160753
-8.63746664547e-05
-0.000150872735128
-8.80541744913e-05
-0.000137701229895
-8.97597624087e-05
-0.000124554377903
-9.15859395166e-05
-0.000111451621721
-9.3648914107e-05
-9.83970338491e-05
-9.60802276169e-05
-8.53717139125e-05
-9.90308105167e-05
-7.23211634186e-05
-0.000102660801294
-5.91333108852e-05
-0.000107104647414
-4.56359899408e-05
-0.000112342507621
-3.15081829574e-05
-0.000118196728868
-1.62540148173e-05
-0.000122966969882
-0.000120182588137
-3.50964336286e-05
0.000109272235537
-6.7449955828e-05
0.000135074759606
-9.66092168354e-05
0.000153919168874
-0.000122969294091
0.000167975593259
-0.000146905455966
0.00017670876892
-0.000168759091428
0.00018064269997
-0.000188851992825
0.000180461477978
-0.000207411092118
0.000177036486332
-0.00022460771621
0.000171186775843
-0.000240583546703
0.000163635313271
-0.00025545812655
0.000154985795497
-0.000269331587943
0.000145716441656
-0.000282285314127
0.000136188538205
-0.000294383183846
0.000126662320041
-0.000305673919742
0.000117316017718
-0.000316194218032
0.000108264591529
-0.000325972043973
9.95761891618e-05
-0.000335029568514
9.12855131822e-05
-0.000343385457062
8.3404090128e-05
-0.000351056447415
7.59278587966e-05
-0.000358058303869
6.88426381346e-05
-0.000364406302146
6.21280110657e-05
-0.000370115407252
5.57600641272e-05
-0.000375200280849
4.9713312941e-05
-0.00037967521733
4.3962047852e-05
-0.000383554071024
3.84812605717e-05
-0.000386850207386
3.32472624694e-05
-0.0003895764956
2.82380794713e-05
-0.000391745356134
2.34336947553e-05
-0.000393368846591
1.8816161357e-05
-0.000394458690496
1.43695189844e-05
-0.000395026247911
1.00795569556e-05
-0.000395083009854
5.93401662191e-06
-0.000394642005141
1.92380538371e-06
-0.000393717024637
-1.95647905793e-06
-0.000392320383994
-5.70884783931e-06
-0.000390463117577
-9.34036721454e-06
-0.000388157220062
-1.28615587566e-05
-0.000385414489131
-1.62810312133e-05
-0.000382246636671
-1.96068400605e-05
-0.000378665190972
-2.28469151283e-05
-0.000374681327784
-2.60093979437e-05
-0.00037030565089
-2.91028951945e-05
-0.000365547934597
-3.21366680024e-05
-0.00036041683529
-3.51207509625e-05
-0.000354919582032
-3.80659847452e-05
-0.000349061663342
-4.09839403008e-05
-0.000342846536198
-4.38867111365e-05
-0.000336275392369
-4.67865534227e-05
-0.000329347024866
-4.96953618092e-05
-0.000322057840937
-5.26239837335e-05
-0.000314402068163
-5.5581391719e-05
-0.000306372196701
-5.85737540509e-05
-0.000297959679977
-6.16034818429e-05
-0.00028915589731
-6.46683403931e-05
-0.00027995336378
-6.77607269403e-05
-0.000270347101575
-7.08672772694e-05
-0.000260336142419
-7.3968808971e-05
-0.000249925011689
-7.70408371916e-05
-0.000239124929973
-8.0054760661e-05
-0.000227955245939
-8.29788377607e-05
-0.000216443798156
-8.57812446855e-05
-0.000204627847336
-8.84313662355e-05
-0.000192552932478
-9.09048146129e-05
-0.000180273940246
-9.31831935933e-05
-0.000167850301204
-9.52645619362e-05
-0.000155349279336
-9.71545170179e-05
-0.000142838720546
-9.88852256671e-05
-0.00013038427156
-0.000100508623896
-0.000118051299082
-0.000102092735289
-0.000105896945234
-0.000103740293763
-9.39617415307e-05
-0.000105584118181
-8.22716991782e-05
-0.000107770270322
-7.08313116906e-05
-0.000110471198314
-5.96101613825e-05
-0.000113881951885
-4.85189845523e-05
-0.000118195824481
-3.73907967971e-05
-0.000123470695565
-2.59496592218e-05
-0.000129637866616
-1.35681024077e-05
-0.000135348526738
-0.00013375069062
-3.35906776947e-05
0.000142862912905
-6.49072230654e-05
0.000166391305067
-9.32993109879e-05
0.000182311256867
-0.000118839110473
0.000193515392771
-0.000141805253608
0.000199674912056
-0.000162532900445
0.000201370346798
-0.000181355649168
0.000199284226687
-0.000198555003448
0.000194235840594
-0.000214366043982
0.000186997816354
-0.000228983149477
0.00017825241874
-0.000242562225042
0.00016856487103
-0.000255223862439
0.000158378079015
-0.00026705755821
0.000148022233932
-0.00027812722299
0.000137731984771
-0.000288477249273
0.000127666043944
-0.000298138285481
0.000117925627672
-0.000307132077564
0.000108569981173
-0.000315475095187
9.96285307264e-05
-0.000323180967092
9.11099619452e-05
-0.000330261934708
8.30088263175e-05
-0.000336729598509
7.53103018321e-05
-0.000342595216458
6.79936289032e-05
-0.000347869759692
6.10346072396e-05
-0.000352563867274
5.44074203929e-05
-0.000356687786121
4.80859665571e-05
-0.000360251339627
4.20448139247e-05
-0.000363263938884
3.62598615592e-05
-0.000365734635991
3.07087763973e-05
-0.000367672222255
2.53712808227e-05
-0.000369085365592
2.02293044809e-05
-0.000369982693795
1.52668469551e-05
-0.000370372685119
1.04695480266e-05
-0.000370263844389
5.82517562335e-06
-0.000369666482283
1.32644299176e-06
-0.000368593125726
-3.02983590619e-06
-0.000367055461299
-7.24651255995e-06
-0.000365063158167
-1.13326706415e-05
-0.000362627222296
-1.52974949262e-05
-0.000359759384102
-1.91488697091e-05
-0.000356471887019
-2.28943374485e-05
-0.000352777249505
-2.65415529514e-05
-0.000348688012432
-3.00986353308e-05
-0.000344216454383
-3.35744535623e-05
-0.000339374265859
-3.69788568521e-05
-0.000334172178635
-4.03228385189e-05
-0.000328619554923
-4.36186087981e-05
-0.000322723952696
-4.68795428787e-05
-0.000316490697015
-5.01199671805e-05
-0.00030992250097
-5.33547498443e-05
-0.000303019192781
-5.65986703897e-05
-0.000295777612946
-5.98655639756e-05
-0.000288191744195
-6.31672608956e-05
-0.000280253145973
-6.65123527157e-05
-0.000271951730196
-6.99048980793e-05
-0.000263276874918
-7.33431961459e-05
-0.000254218916673
-7.68186856733e-05
-0.000244770823337
-8.0315371102e-05
-0.000234930074235
-8.38095585746e-05
-0.000224700716098
-8.72701958315e-05
-0.000214094442899
-9.06610343581e-05
-0.000203133272356
-9.39400087974e-05
-0.00019184910495
-9.70654125768e-05
-0.000180286552453
-9.9993919209e-05
-0.000168499439928
-0.00010269192761
-0.000156556241344
-0.00010512639264
-0.000144528936135
-0.000107291867609
-0.000132503143151
-0.000109180310456
-0.000120567218439
-0.000110821150835
-0.00010880655043
-0.00011226929235
-9.73087666505e-05
-0.000113590519507
-8.61590380889e-05
-0.000114890022746
-7.54216323601e-05
-0.000116321524313
-6.51438682514e-05
-0.000118048034793
-5.53527657461e-05
-0.000120262301137
-4.60381871914e-05
-0.000123196530688
-3.71381859039e-05
-0.000127095825975
-2.84828210902e-05
-0.000132126060547
-1.98639669942e-05
-0.000138256720768
-1.05913061862e-05
-0.000144621187677
-0.000144341996684
-3.16688927753e-05
0.000174531806891
-6.14411932523e-05
0.000196163605989
-8.8539432386e-05
0.000209409496201
-0.00011290664338
0.000217882603865
-0.000134742679993
0.000221510948726
-0.000154341572951
0.000220969239792
-0.000172020981492
0.000216963635253
-0.000188075598852
0.000210290457972
-0.000202762751143
0.000201684968657
-0.000216296414033
0.000191786081636
-0.000228845493755
0.000181113950752
-0.000240536937348
0.000170069522602
-0.000251461890988
0.000158947187561
-0.00026168341728
0.000147953511046
-0.000271244214681
0.00013722684132
-0.00028017326935
0.000126854682311
-0.000288490939238
0.000116887651022
-0.000296212447943
0.000107350039384
-0.00030335005054
9.82475644875e-05
-0.000309914237306
8.957301302e-05
-0.000315914324516
8.13103889705e-05
-0.000321358707247
7.34380115539e-05
-0.000326254961987
6.59308618888e-05
-0.000330609910907
5.87623692126e-05
-0.000334429703646
5.19057591831e-05
-0.00033771993612
4.53350462724e-05
-0.000340485803573
3.90257288708e-05
-0.000342732272498
3.29552451648e-05
-0.000344464261877
2.71032700272e-05
-0.000345686844765
2.1451887175e-05
-0.000346405444305
1.59854462806e-05
-0.000346625747563
1.0689851046e-05
-0.000346353028054
5.55245584791e-06
-0.000345592704177
5.66118842617e-07
-0.000344357899835
-4.26464052472e-06
-0.000342661419834
-8.94299284073e-06
-0.000340510105174
-1.34839855826e-05
-0.000337914268643
-1.78933317429e-05
-0.000334885836827
-2.21773018129e-05
-0.000331437851944
-2.63423226244e-05
-0.000327584105129
-3.0395300064e-05
-0.000323338825622
-3.43439151408e-05
-0.000318716354773
-3.81969247212e-05
-0.00031373077045
-4.19644414933e-05
-0.000308395443583
-4.56581657124e-05
-0.00030272252273
-4.929152999e-05
-0.000296722359852
-5.28797061096e-05
-0.000290402911294
-5.64394161059e-05
-0.000283769166909
-5.99884946144e-05
-0.000276822681271
-6.35451564309e-05
-0.000269561299653
-6.71269460169e-05
-0.000261979152708
-7.07494082838e-05
-0.00025406704225
-7.44244636354e-05
-0.000245813298582
-7.81586422256e-05
-0.000237205017127
-8.19514780929e-05
-0.000228229946719
-8.5793756583e-05
-0.000218878534075
-8.96667842524e-05
-0.000209146091688
-9.35420014707e-05
-0.000199036142744
-9.73801452799e-05
-0.000188560097901
-0.000101137079703
-0.000177743130936
-0.000104756976258
-0.000166620594931
-0.000108187949072
-0.000155245931952
-0.000111368582682
-0.000143680370255
-0.000114257489796
-0.000132008626208
-0.000116798137189
-0.000120315463339
-0.000118985030981
-0.00010870585849
-0.000120789915814
-9.72917164357e-05
-0.000122235293395
-8.61830610724e-05
-0.000123377948205
-7.54882819806e-05
-0.000124285299084
-6.53260926993e-05
-0.000125052212484
-5.57915852154e-05
-0.000125856032218
-4.69547708491e-05
-0.000126884849517
-3.88676068673e-05
-0.000128349465397
-3.153906413e-05
-0.000130525073636
-2.4936093317e-05
-0.000133698796917
-1.88877244099e-05
-0.000138174429531
-1.32413851262e-05
-0.000143903060143
-7.31226501381e-06
-0.000150550307548
-0.000151654261741
-2.94938854585e-05
0.000204025692263
-5.74716897612e-05
0.000224141410524
-8.30233999924e-05
0.000234961206633
-0.000106032815094
0.000240892019112
-0.000126647810488
0.000242125944227
-0.00014511963935
0.000239441068739
-0.000161738121073
0.000233582117045
-0.000176787301623
0.00022533963858
-0.000190521221588
0.000215418888672
-0.000203152313589
0.00020441717368
-0.00021484767629
0.000192809313492
-0.000225732131878
0.000180953978222
-0.000235895094715
0.000169110150424
-0.000245398847564
0.000157457263915
-0.000254286348132
0.000146114341901
-0.000262587551187
0.000135155885372
-0.000270323959882
0.000124624059715
-0.000277511591681
0.000114537671174
-0.00028416275085
0.00010489872364
-0.000290287020069
9.56972822141e-05
-0.000295891808763
8.69151776304e-05
-0.000300982692354
7.8528895101e-05
-0.000305563682497
7.05118519794e-05
-0.000309637497647
6.28361842973e-05
-0.000313205857201
5.54741186596e-05
-0.000316269797491
4.83989864702e-05
-0.000318829997126
4.15859283966e-05
-0.000320887094465
3.50123423767e-05
-0.000322441971361
2.86581467762e-05
-0.000323495995243
2.25059108884e-05
-0.000324051248616
1.65406994593e-05
-0.000324110695174
1.0749297382e-05
-0.000323677896479
5.11965691348e-06
-0.000322756365864
-3.55412033827e-07
-0.000321355688235
-5.66531841345e-06
-0.000319485731808
-1.08129495288e-05
-0.000317153907399
-1.58158102551e-05
-0.000314370956717
-2.06762826912e-05
-0.000311149448718
-2.53988100831e-05
-0.000307503361093
-2.99884105247e-05
-0.000303447783747
-3.44508776929e-05
-0.000298998652305
-3.87930468713e-05
-0.000294172445582
-4.30231317428e-05
-0.000288985806178
-4.71510812064e-05
-0.000283455055807
-5.11889164051e-05
-0.000277595590278
-5.51509958558e-05
-0.000271421160073
-5.90541366696e-05
-0.000264943074165
-6.29175023874e-05
-0.000258169390523
-6.67621786504e-05
-0.00025110417922
-7.06103681494e-05
-0.000243747011718
-7.44841139555e-05
-0.000236092732632
-7.84036878273e-05
-0.000228131703209
-8.23854935322e-05
-0.000219850790118
-8.6439555804e-05
-0.000211234572301
-9.05676964084e-05
-0.000202267798473
-9.4760530914e-05
-0.000192938046418
-9.89965368147e-05
-0.000183237473955
-0.000103242574437
-0.000173169717879
-0.000107447901859
-0.000162744431366
-0.000111562366721
-0.000151991198318
-0.000115510209809
-0.000140947238442
-0.000119231909463
-0.000129677106523
-0.000122638715124
-0.000118247516266