/*--------------------------------*- C++ -*----------------------------------*\
| =========                 |                                                 |
| \\      /  F ield         | OpenFOAM: The Open Source CFD Toolbox           |
|  \\    /   O peration     | Version:  v1806                                 |
|   \\  /    A nd           | Web:      www.OpenFOAM.com                      |
|    \\/     M anipulation  |                                                 |
\*---------------------------------------------------------------------------*/
FoamFile
{
    version     2.0;
    format      ascii;
    class       surfaceScalarField;
    location    "800";
    object      phi;
}
// * * * * * * * * * * * * * * * * * * * * * * * * * * * * * * * * * * * * * //

dimensions      [0 3 -1 0 0 0 0];
oriented        oriented;


internalField   nonuniform List<scalar> 
12640
(
1.33258768489e-05
-1.33259025538e-05
2.08717485786e-05
-7.54589950922e-06
2.36998943323e-05
-2.82817440817e-06
1.5965684052e-05
7.73418426365e-06
-2.89245256981e-06
1.88581081081e-05
-3.17780392844e-05
2.88855586372e-05
-6.19937905603e-05
3.02157314053e-05
-9.26119536847e-05
3.06181467616e-05
-0.000123026700226
3.0414731824e-05
-0.000152759450058
2.97327365784e-05
-0.000181445230766
2.8685768565e-05
-0.000208824376263
2.73791343853e-05
-0.000234726266455
2.59018799301e-05
-0.000259052648611
2.43263726202e-05
-0.000281762001165
2.27093436382e-05
-0.000302855620267
2.10936106843e-05
-0.000322365721563
1.95100933199e-05
-0.000340345624845
1.79798956384e-05
-0.000356861932832
1.65163006517e-05
-0.000371988511773
1.51265718236e-05
-0.000385802024267
1.38135055873e-05
-0.000398378746318
1.25767152829e-05
-0.000409792408563
1.14136556152e-05
-0.000420112828045
1.0320412935e-05
-0.00042940513012
9.29229561678e-06
-0.000437729397062
8.32426052758e-06
-0.000445140612366
7.41120893828e-06
-0.000451688799406
6.54818069419e-06
-0.000457419275939
5.73047020703e-06
-0.000462372964779
4.95368252036e-06
-0.000466586712038
4.21374094592e-06
-0.000470093576793
3.50685844734e-06
-0.000472923036661
2.8294535525e-06
-0.000475100938286
2.1778953134e-06
-0.000476649128782
1.54818417877e-06
-0.000477585595054
9.36459991898e-07
-0.000477923018228
3.37416908332e-07
-0.000477669841965
-2.53182458696e-07
-0.000476833760251
-8.36087880227e-07
-0.000475426211172
-1.40755515732e-06
-0.000473462452191
-1.96376503463e-06
-0.000470957314003
-2.50514414361e-06
-0.000467924033421
-3.03328652027e-06
-0.000464373857676
-3.5501815795e-06
-0.00046031593709
-4.05792641206e-06
-0.000455757325826
-4.55861698634e-06
-0.000450703037266
-5.05429428539e-06
-0.00044515614412
-5.54689876922e-06
-0.000439117929701
-6.03822006097e-06
-0.000432588100514
-6.52983473185e-06
-0.000425565070326
-7.02303576989e-06
-0.000418046320795
-7.5187550223e-06
-0.000410028838318
-8.01748802596e-06
-0.000401509616906
-8.51922688127e-06
-0.000392486208319
-9.02341413502e-06
-0.00038295728829
-9.5289255092e-06
-0.000372923198597
-1.00340952725e-05
-0.000362386412687
-1.05367914384e-05
-0.000351351865825
-1.10345525089e-05
-0.000339827082386
-1.15247890502e-05
-0.000327822031707
-1.20050564284e-05
-0.000315348641416
-1.24733960221e-05
-0.000302419902496
-1.29287448036e-05
-0.000289048503711
-1.33714046618e-05
-0.000275244944183
-1.38035655656e-05
-0.000261015080317
-1.42298699024e-05
-0.000246357085777
-1.46580007365e-05
-0.000231257838756
-1.5099253215e-05
-0.000215688788678
-1.55690564282e-05
-0.00019960147024
-1.60873247921e-05
-0.000182923128082
-1.66783487242e-05
-0.000165553112146
-1.73700225664e-05
-0.000147361371092
-1.8191748082e-05
-0.000128193506793
-1.91678717329e-05
-0.000107893314535
-2.03002002203e-05
-8.63550702528e-05
-2.15382530896e-05
-6.35963811552e-05
-2.27586986715e-05
-3.98771344391e-05
-2.37192571114e-05
-1.64942958329e-05
-2.33828559044e-05
-1.64943063048e-05
9.76747199682e-06
-2.30934215167e-05
6.59039824263e-06
-4.36886935861e-06
-1.31040179115e-05
1.68662132496e-05
-4.1375099789e-05
3.60052466691e-05
-6.95218768512e-05
4.70048715669e-05
-9.65762714862e-05
5.59399425786e-05
-0.000126146647193
5.97860969142e-05
-0.000156530130607
6.10016206896e-05
-0.000186751813505
6.06364052032e-05
-0.000216190811903
5.91717259858e-05
-0.000244437549698
5.69324974566e-05
-0.000271223625138
5.41652014534e-05
-0.000296385139294
5.1063385874e-05
-0.000319837263316
4.77784888883e-05
-0.000341554341818
4.44264145411e-05
-0.000361553720294
4.10929819156e-05
-0.000379882635731
3.78390016375e-05
-0.000396607800395
3.47050534331e-05
-0.000411807356598
3.17158500825e-05
-0.000425564862097
2.88840707086e-05
-0.000437964960042
2.62135969911e-05
-0.000449090397884
2.37021466663e-05
-0.00045902009253
2.13433438645e-05
-0.000467827981101
1.91282951278e-05
-0.000475582442868
1.7046751062e-05
-0.000482346122642
1.50879339459e-05
-0.000488176024312
1.32411043115e-05
-0.000493123776359
1.14959263622e-05
-0.000497235994809
9.84268234667e-06
-0.000500554694911
8.27237619536e-06
-0.000503117722011
6.77676170435e-06
-0.000504959167094
5.34829704581e-06
-0.000506109717146
3.97999722324e-06
-0.000506596844065
2.6650156857e-06
-0.000506444224653
1.39555836029e-06
-0.000505670791604
1.63020379707e-07
-0.000504304246138
-1.02913490075e-06
-0.000502382600706
-2.17483437446e-06
-0.000499939688184
-3.27900663127e-06
-0.000496998993485
-4.34825623627e-06
-0.000493574599697
-5.38816492694e-06
-0.000489676989923
-6.4027601879e-06
-0.000485314509598
-7.3957728228e-06
-0.000480493824611
-8.37087272463e-06
-0.000475220038691
-9.33171818782e-06
-0.000469496718547
-1.02819431836e-05
-0.000463325906609
-1.12251119715e-05
-0.000456708163431
-1.21646479077e-05
-0.000449642655978
-1.31037331715e-05
-0.000442127312861
-1.40451837377e-05
-0.000434159052836
-1.49913013881e-05
-0.000425734098992
-1.5943714707e-05
-0.000416848373532
-1.69032190465e-05
-0.0004074979708
-1.78696354353e-05
-0.000397679685304
-1.88417051897e-05
-0.000387391571804
-1.98170448451e-05
-0.000376633492948
-2.07921797223e-05
-0.000365407610892
-2.17626793752e-05
-0.000353718759799
-2.27234092642e-05
-0.000341574641125
-2.36689136808e-05
-0.000328985770722
-2.45939325935e-05
-0.000315965118242
-2.54940545571e-05
-0.000302527374667
-2.63664942639e-05
-0.000288687801017
-2.72109844809e-05
-0.00027446061511
-2.80307574898e-05
-0.000259856893901
-2.88335973914e-05
-0.000244881971486
-2.96329292921e-05
-0.000229532377391
-3.04488536818e-05
-0.000213792375474
-3.13090645904e-05
-0.000197630140431
-3.22495662819e-05
-0.000180993966061
-3.33145294538e-05
-0.000163809120769
-3.45548744689e-05
-0.000145976233799
-3.60246417191e-05
-0.000127373586852
-3.77705257081e-05
-0.000107866404617
-3.98073898768e-05
-8.73281775412e-05
-4.20764879004e-05
-6.57103419091e-05
-4.43765422527e-05
-4.32844673936e-05
-4.61451404155e-05
-2.10482603503e-05
-4.56190730719e-05
-3.75425748577e-05
-8.33913562478e-06
-1.47542977588e-05
-3.0112042091e-05
1.74040135391e-05
-5.59440771962e-05
4.26982349034e-05
-8.12572226548e-05
6.13183821335e-05
-0.000108627141387
7.43747819009e-05
-0.000135809002688
8.3121796284e-05
-0.000163550714095
8.75278013048e-05
-0.000191365732667
8.88166323382e-05
-0.000218633438411
8.79041041251e-05
-0.000244885719307
8.54239999768e-05
-0.000269808804341
8.1855575661e-05
-0.000293211479423
7.7567869682e-05
-0.000314995493994
7.28473937032e-05
-0.000335130959775
6.79139479508e-05
-0.000353636423321
6.29318714829e-05
-0.000370562995962
5.80195479869e-05
-0.000385982035715
5.32580349136e-05
-0.000399975899365
4.86989106369e-05
-0.000412631266805
4.4371211136e-05
-0.000424034539341
4.02873368757e-05
-0.000434268843948
3.64478952576e-05
-0.000443412233095
3.28455294792e-05
-0.000451536740688
2.94678451235e-05
-0.000458708026998
2.62995751031e-05
-0.000464985411736
2.33241294389e-05
-0.000470422150006
2.05246658473e-05
-0.000475065848377
1.78847962645e-05
-0.000478958949367
1.53890209227e-05
-0.000482139237156
1.3022963638e-05
-0.000484640347442
1.0773479974e-05
-0.000486492281833
8.62868951331e-06
-0.000487721871662
6.57788028725e-06
-0.000488352985593
4.61110447662e-06
-0.000488406680692
2.71870411312e-06
-0.000487903317941
8.92188884468e-07
-0.000486866690536
-8.73613663501e-07
-0.000485319474322
-2.5763577559e-06
-0.000483275924215
-4.21839099644e-06
-0.000480746380161
-5.80855720356e-06
-0.000477741543784
-7.35309899522e-06
-0.000474271817796
-8.85789730634e-06
-0.000470346322818
-1.03282614138e-05
-0.000465972782526
-1.17693193802e-05
-0.000461157499355
-1.31861620153e-05
-0.00045590532742
-1.458389627e-05
-0.000450219639443
-1.59676371656e-05
-0.000444102306794
-1.73424506648e-05
-0.000437553712078
-1.8713248534e-05
-0.000430572814529
-2.00846366845e-05
-0.000423157285011
-2.14607190975e-05
-0.00041530372646
-2.28448658525e-05
-0.000407007989259
-2.42394577126e-05
-0.000398265586122
-2.56456280784e-05
-0.000389072200207
-2.70630271551e-05
-0.000379424271269
-2.84896400401e-05
-0.000369319630744
-2.99216912114e-05
-0.000358758146898
-3.13536695336e-05
-0.000347742328736
-3.27785034476e-05
-0.00033627782903
-3.41879150171e-05
-0.000324373778864
-3.55729698534e-05
-0.000312042887224
-3.69248303797e-05
-0.000299301238105
-3.82357097928e-05
-0.000286167730587
-3.95000080364e-05
-0.000272663111553
-4.07156097449e-05
-0.000258808571738
-4.18853036639e-05
-0.00024462389794
-4.30182775239e-05
-0.000230125150748
-4.41316829283e-05
-0.000215321917448
-4.52520933965e-05
-0.000200214312447
-4.64166760948e-05
-0.000184789427285
-4.76744579179e-05
-0.000169017672639
-4.90862906747e-05
-0.000152849740628
-5.07228130713e-05
-0.000136213718974
-5.2660670148e-05
-0.000119012682229
-5.49715694309e-05
-0.000101124346881
-5.7695732397e-05
-8.24092847617e-05
-6.07915575644e-05
-6.27573125116e-05
-6.40285221816e-05
-4.21982443603e-05
-6.67042159462e-05
-2.1017297812e-05
-6.68000302196e-05
-5.85598776957e-05
-2.43663406915e-05
9.61199361793e-06
-5.22244887978e-05
4.52621439728e-05
-7.88015958909e-05
6.92753324173e-05
-0.000105226539473
8.7743318125e-05
-0.000131705471147
0.000100853706925
-0.000157770979613
0.000109187298842
-0.000183410752473
0.0001131675686
-0.000208395206401
0.000113801080855
-0.000232429219374
0.000111938111605
-0.000255271948278
0.000108266723319
-0.000276763629708
0.000103347251377
-0.000296821265736
9.76254999229e-05
-0.000315422905015
9.14490270837e-05
-0.000332590251746
8.5081288743e-05
-0.000348373362629
7.8714976356e-05
-0.000362838549784
7.24847291098e-05
-0.000376059531374
6.6479010423e-05
-0.000388111407147
6.07507803104e-05
-0.000399066870879
5.53266687292e-05
-0.000408994065933
5.02145257671e-05
-0.000417955568756
4.54093918818e-05
-0.000426008095714
4.08980502066e-05
-0.000433202640622
3.66623837662e-05
-0.000439584845022
3.26817731957e-05
-0.000445195475873
2.89347539454e-05
-0.000450070936706
2.54001202819e-05
-0.000454243771507
2.2057624626e-05
-0.000457743140296
1.88883832033e-05
-0.000460595255614
1.58750724056e-05
-0.000462823788903
1.30020066376e-05
-0.000464450269632
1.02551635764e-05
-0.000465494449739
7.62205364693e-06
-0.000465974407946
5.09105589936e-06
-0.00046590629628
2.65058559869e-06
-0.000465305574131
2.9145989516e-07
-0.000464194664284
-1.98453031409e-06
-0.000462591847264
-4.17918147092e-06
-0.000460506726442
-6.30351847423e-06
-0.000457950909733
-8.36438045814e-06
-0.000454935315834
-1.03686994067e-05
-0.000451470047236
-1.23231723063e-05
-0.000447564067425
-1.42342476004e-05
-0.000443225099286
-1.61082937861e-05
-0.000438459549317
-1.7951718233e-05
-0.000433272428055
-1.97710236796e-05
-0.000427667270603
-2.157280076e-05
-0.000421646072105
-2.33636552134e-05
-0.000415209258688
-2.51500680131e-05
-0.000408355714517
-2.6938186841e-05
-0.000401082887318
-2.87335523116e-05
-0.000393386991387
-3.05407677405e-05
-0.000385263324589
-3.2363130519e-05
-0.000376706707206
-3.42022514306e-05
-0.000367712041921
-3.60576984828e-05
-0.000358274980289
-3.79267076963e-05
-0.000348392668298
-3.98040093192e-05
-0.000338064527934
-4.16818160121e-05
-0.000327293022872
-4.35500147277e-05
-0.000316084341086
-4.5396603028e-05
-0.000304448919706
-4.72083975631e-05
-0.00029240174156
-4.89720148636e-05
-0.000279962326804
-5.06751309865e-05
-0.000267154369287
-5.23079719991e-05
-0.000254004967262
-5.38650183052e-05
-0.000240543410548
-5.53468669173e-05
-0.000226799569036
-5.676212565e-05
-0.000212801820033
-5.81294385457e-05
-0.000198574440862
-5.94794792399e-05
-0.000184135142753
-6.08559808748e-05
-0.000169491612804
-6.23179945899e-05
-0.000154637605613
-6.39403046095e-05
-0.000139550357593
-6.58100679272e-05
-0.00012418659631
-6.80244383734e-05
-0.000108475485319
-7.06826875463e-05
-9.23117995753e-05
-7.38594255608e-05
-7.55508330918e-05
-7.75525315212e-05
-5.80143941121e-05
-8.15649687228e-05
-3.94995280163e-05
-8.52190903431e-05
-1.9893045878e-05
-8.6406519651e-05
-7.84529301613e-05
-3.36139801749e-05
4.32259787327e-05
-6.26696671052e-05
7.43178248953e-05
-9.0569858632e-05
9.71755171702e-05
-0.000117453378956
0.000114626832116
-0.000143264819161
0.000126665141397
-0.000167929940951
0.000133852415391
-0.000191512467794
0.000136750090533
-0.000213961741305
0.000136250349563
-0.000235196882488
0.00013317324798
-0.000255158589579
0.000128228425482
-0.00027382262084
0.000122011277587
-0.00029119935064
0.000115002224512
-0.000307325549818
0.000107575220923
-0.000322254358457
0.000100010091904
-0.000336046542565
9.25071548814e-05
-0.000348764165081
8.52023459314e-05
-0.000360466688297
7.81815278589e-05
-0.000371209016582
7.14931027251e-05
-0.000381040858617
6.51585048207e-05
-0.000390006858064
5.91805191956e-05
-0.000398147087282
5.35496150159e-05
-0.000405497648596
4.82486053707e-05
-0.000412091246587
4.32559755439e-05
-0.00041795767645
3.85481967853e-05
-0.000423124220192
3.41012913478e-05
-0.000427615963463
2.98918571511e-05
-0.000431456053639
2.58977083234e-05
-0.00043466592104
2.20982440587e-05
-0.000437265485839
1.84746305745e-05
-0.000439273352037
1.50098661395e-05
-0.000440706985338
1.16887900996e-05
-0.000441582880374
8.49794183313e-06
-0.000441916783382
5.42495195015e-06
-0.000441724210206
2.45800543048e-06
-0.00044102151984
-4.11237444337e-07
-0.000439826117503
-3.17993952861e-06
-0.000438152717474
-5.85258830417e-06
-0.0004360129751
-8.44326755049e-06
-0.000433418205407
-1.09591567887e-05
-0.000430379067566
-1.34078437896e-05
-0.000426905500495
-1.57967458625e-05
-0.000423006541791
-1.81332127003e-05
-0.000418690180098
-2.04246618312e-05
-0.00041396321276
-2.26786918423e-05
-0.000408831100881
-2.49031417994e-05
-0.000403297826025
-2.71060817921e-05
-0.000397365763025
-2.92957243775e-05
-0.000391035589057
-3.14802480987e-05
-0.000384306254003
-3.36675280227e-05
-0.000377175038734
-3.58647736846e-05
-0.000369637728285
-3.80780843289e-05
-0.000361688922868
-4.03119420744e-05
-0.000353322502956
-4.25686775441e-05
-0.000344532251718
-4.48479559453e-05
-0.000335312624296
-4.71463414257e-05
-0.000325659635133
-4.94570048286e-05
-0.000315571815019
-5.17696425651e-05
-0.000305051181854
-5.40706543758e-05
-0.000294104152547
-5.63436389051e-05
-0.000282742295118
-5.85702615961e-05
-0.000270982860597
-6.07314560629e-05
-0.000258848981065
-6.28090172204e-05
-0.000246369499955
-6.47874598704e-05
-0.000233578389316
-6.66561357211e-05
-0.000220513656843
-6.84116062143e-05
-0.000207215893486
-7.00598958485e-05
-0.000193726488533
-7.16188503745e-05
-0.000180084702345
-7.31212723264e-05
-0.000166326037313
-7.46146528401e-05
-0.000152478790155
-7.61652487249e-05
-0.000138558864424
-7.78602373763e-05
-0.00012456841755
-7.98005219235e-05
-0.000110492608595
-8.21002545977e-05
-9.62883495272e-05
-8.48869541005e-05
-8.18744495007e-05
-8.82733332168e-05
-6.71158553034e-05
-9.23111336354e-05
-5.18008507741e-05
-9.68799809934e-05
-3.55891482433e-05
-0.000101430799949
-1.80939765032e-05
-0.000103901701903
-9.65469103993e-05
-3.4753993329e-05
7.79799444107e-05
-6.60731367335e-05
0.000105636958845
-9.4912879285e-05
0.000126015253248
-0.000121767769409
0.00014148171659
-0.000146796419172
0.000151693786025
-0.00017011738162
0.0001571733731
-0.000191903146198
0.000158535850625
-0.000212257356252
0.000156604555239
-0.000231253358242
0.00015216924557
-0.00024896027585
0.000145935338597
-0.000265449673341
0.000138500670439
-0.000280795166561
0.000130347712937
-0.000295068701095
0.000121848750492
-0.000308336800429
0.000113278186117
-0.000320658231814
0.000104828580991
-0.000332083350771
9.66274594774e-05
-0.00034265473381
8.87529053539e-05
-0.000352408509253
8.12468725078e-05
-0.000361375870134
7.41258599299e-05
-0.00036958443406
6.73890772491e-05
-0.000377059295329
6.1024470319e-05
-0.000383823745526
5.50130495141e-05
-0.000389899712402
4.93319362836e-05
-0.000395307994832
4.39564729978e-05
-0.000400068370896
3.88616611116e-05
-0.000404199640681
3.40231205503e-05
-0.000407719647016
2.94177081821e-05
-0.00041064530552
2.50238959911e-05
-0.000412992666773
2.0821985161e-05
-0.000414777007343
1.6794199949e-05
-0.000416012882617
1.29246585131e-05
-0.000416714148394
9.19920062943e-06
-0.000416894403208
5.60519971278e-06
-0.000416568424049
2.13201913923e-06
-0.000415752882503
-1.22678608917e-06
-0.000414460308613
-4.47252040052e-06
-0.000412701373719
-7.61153006812e-06
-0.000410489281783
-1.06553662615e-05
-0.000407835605629
-1.36128396243e-05
-0.000404751209919
-1.64922461018e-05
-0.000401246335049
-1.9301627253e-05
-0.000397330511011
-2.2049043195e-05
-0.000393012401292
-2.47427779387e-05
-0.000388299612108
-2.73914873681e-05
-0.000383198481073
-3.00042791277e-05
-0.000377713858197
-3.25907109367e-05
-0.000371848896846
-3.5160691972e-05
-0.000365604878866
-3.77242723235e-05
-0.000358981104127
-4.0291309009e-05
-0.0003519748795
-4.28710045918e-05
-0.000344581643445
-4.54713266945e-05
-0.000336795260179
-4.80983317163e-05
-0.000328608510133
-5.07554340227e-05
-0.000320013787385
-5.34426852145e-05
-0.000311003995895
-5.61561395118e-05
-0.000301573619115
-5.88873882996e-05
-0.000291719898618
-6.1623369827e-05
-0.000281444060543
-6.43464992978e-05
-0.000270752528144
-6.70351782041e-05
-0.000259657937596
-6.96648590992e-05
-0.000248179964716
-7.2209435928e-05
-0.000236345743092
-7.46432458608e-05
-0.000224189873701
-7.69433362974e-05
-0.00021175404473
-7.90919717466e-05
-0.000199085970288
-8.10796877372e-05
-0.000186237880194
-8.29079930435e-05
-0.000173265393516
-8.45913441828e-05
-0.000160223162474
-8.61635105504e-05
-0.000147164631291
-8.76731912318e-05
-0.00013413920449
-8.91906828323e-05
-0.000121183362346
-9.08160868901e-05
-0.000108320198651
-9.26636931513e-05
-9.55607572338e-05
-9.4859703692e-05
-8.28874497672e-05
-9.75602694585e-05
-7.02441751074e-05
-0.000100916616036
-5.75159119101e-05
-0.000105039404868
-4.44934215514e-05
-0.000109902479437
-3.07925475171e-05
-0.000115131682658
-1.58166801813e-05
-0.000118877575378
-0.000112363596759
-3.41267229755e-05
0.000112106679938
-6.57416218619e-05
0.000137251856767
-9.46027919459e-05
0.000154876419429
-0.000120964288785
0.000167843208925
-0.000145055238168
0.000175784730942
-0.000167105455206
0.000179223585854
-0.000187358592531
0.000178788983809
-0.000206018541947
0.00017526450057
-0.000223258874884
0.000169409574393
-0.000239230767046
0.000161907226551
-0.000254064601618
0.000153334500671
-0.000267869973653
0.000144153080472
-0.00028073577333
0.000134714545506
-0.000292731592354
0.000125274000306
-0.000303910467233
0.000116007450874
-0.000314312397037
0.000107029384124
-0.000323967942965
9.84084459783e-05
-0.000332901378498
9.01803025951e-05
-0.000341133118854
8.2357594711e-05
-0.00034868138834
7.49373410385e-05
-0.000355563230234
6.79063064049e-05
-0.000361795026339
6.12448397063e-05
-0.000367392696473
5.49296004048e-05
-0.000372371719548
4.89354899625e-05
-0.000376747078666
4.32370140176e-05
-0.000380533194744
3.78092303103e-05
-0.000383743882379
3.26283893854e-05
-0.000386392345572
2.76723526343e-05
-0.000388491228463
2.29208613827e-05
-0.000390052709363
1.83556740614e-05
-0.000391088536135
1.39604783719e-05
-0.000391609967497
9.72062494288e-06
-0.000391628240621
5.6234655984e-06
-0.000391156155272
1.65992655237e-06
-0.000390207437783
-2.17551074202e-06
-0.000388794368979
-5.88559624407e-06
-0.000386927538208
-9.47836776115e-06
-0.000384618260095
-1.29646511879e-05
-0.000381877695865
-1.63534105724e-05
-0.00037871690999
-1.96530386058e-05
-0.000375146753919
-2.28717898792e-05
-0.000371177686667
-2.60181169331e-05
-0.000366819549075
-2.91009219647e-05
-0.000362081301347
-3.21297414857e-05
-0.000356970730461
-3.51148563762e-05
-0.000351494138026
-3.80673097211e-05
-0.000345656027013
-4.09988093377e-05
-0.000339458815306
-4.3921490405e-05
-0.000332902613706
-4.68475170253e-05
-0.000325985114414
-4.97885103548e-05
-0.000318701639894
-5.27548077671e-05
-0.000311045399962
-5.57545782846e-05
-0.000303008001217
-5.87928395123e-05
-0.000294580230144
-6.1870463133e-05
-0.000285753098761
-6.49832778515e-05
-0.000276519143972
-6.81213501382e-05
-0.000266873885181
-7.12686357559e-05
-0.000256817342776
-7.44030489012e-05
-0.000246355676077
-7.74968521448e-05
-0.000235502467061
-8.0518075382e-05
-0.000224279948256
-8.34319620059e-05
-0.000212719665027
-8.62035363723e-05
-0.000200862624576
-8.88003840295e-05
-0.000188759206407
-9.1195397218e-05
-0.000176468155629
-9.33707458423e-05
-0.000164054402038
-9.53217539912e-05
-0.000151589894217
-9.7055859446e-05
-0.000139145817466
-9.86075947513e-05
-0.000126793823806
-0.000100025192508
-0.000114606635797
-0.0001013778785
-0.000102643113661
-0.000102779616901
-9.09438229422e-05
-0.000104362991847
-7.95436887067e-05
-0.000106259846138
-6.84478861026e-05
-0.000108656080512
-5.76228598654e-05
-0.000111741650808
-4.69770081174e-05
-0.000115685265313
-3.63217064888e-05
-0.000120557789011
-2.52982371152e-05
-0.00012615515891
-1.31615517247e-05
-0.000131014271483
-0.000125525151257
-3.28318297862e-05
0.000144938496011
-6.35417019085e-05
0.00016796172437
-9.1596649035e-05
0.000182931362858
-0.000117029569016
0.00019327612511
-0.000140030609504
0.000198785767614
-0.000160853542094
0.000200046514671
-0.00017977223482
0.00019770767281
-0.000197041536092
0.000192533798112
-0.000212888063964
0.00018525609848
-0.000227506208896
0.000176525367595
-0.000241055713689
0.00016688400144
-0.0002536621541
0.000156759516704
-0.000265419993376
0.000146472380434
-0.000276397635787
0.000136251638196
-0.000286643384815
0.000126253195209
-0.000296191246557
0.000116577241005
-0.000305065844119
0.000107283038515
-0.000313286119869
9.84005731678e-05
-0.000320867836207
8.9939305726e-05
-0.000327825081054
8.18945804279e-05
-0.000334171053854
7.42522736237e-05
-0.000339918393859
6.69921740115e-05
-0.000345079258182
6.00904589156e-05
-0.000349665293387
5.35215192416e-05
-0.000353687588306
4.72593028919e-05
-0.000357156653237
4.12782890697e-05
-0.000360082439961
3.55541697986e-05
-0.000362474401419
3.0064307638e-05
-0.000364341593831
2.47880471948e-05
-0.000365692825311
1.97068987926e-05
-0.00036653677194
1.48044180799e-05
-0.000366881848502
1.00656943724e-05
-0.000366736178897
5.4777887786e-06
-0.000366109608814
1.03334911199e-06
-0.000365015002678
-3.27012410555e-06
-0.000363464068
-7.43653798801e-06
-0.000361465718982
-1.14767237124e-05
-0.000359030309347
-1.54000676369e-05
-0.000356168943729
-1.92147829058e-05
-0.000352893235519
-2.29287534424e-05
-0.000349215048139
-2.6549983817e-05
-0.000345146230603
-3.0086940966e-05
-0.000340698323935
-3.35488350915e-05
-0.000335882226578
-3.69458452729e-05
-0.000330707814632
-4.02892747497e-05
-0.000325183522363
-4.3591608427e-05
-0.000319315900941
-4.6866437236e-05
-0.000313109187442
-5.01282104327e-05
-0.000306564931082
-5.3391779995e-05
-0.000299681737649
-5.66717104967e-05
-0.000292455202666
-5.99813495717e-05
-0.000284878097816
-6.3331690085e-05
-0.000276940881028
-6.67300633771e-05
-0.000268632578593
-7.01787727719e-05
-0.000259941992682
-7.367387108e-05
-0.00025085928215
-7.72040680782e-05
-0.000241377791738
-8.07501336471e-05
-0.000231495812362
-8.42850357857e-05
-0.000221218914635
-8.77737574051e-05
-0.000210561384985
-9.1175612545e-05
-0.000199548046857
-9.4445307651e-05
-0.000188215213767
-9.75363769702e-05
-0.000176610843596
-0.00010040476171
-0.000164794858582
-0.000103011389808
-0.000152838583684
-0.000105327028337
-0.000140820336348
-0.000107340009066
-0.000128830838333
-0.000109045365258
-0.000116960430592
-0.000110478010454
-0.000105298707031
-0.000111686924116
-9.3943103292e-05
-0.000112733490469
-8.29823110342e-05
-0.000113740417602
-7.24736665879e-05
-0.000114871644946
-6.24749420592e-05
-0.000116258579547
-5.30136945394e-05
-0.000118117337
-4.40764601354e-05
-0.000120678894309
-3.55941086775e-05
-0.000124167625349
-2.74001212247e-05
-0.00012875178502
-1.91995861216e-05
-0.000134355702737
-1.01743528434e-05
-0.000140039509653
-0.000135699510229
-3.10454288746e-05
0.000175983938574
-6.03057948979e-05
0.000197222092291
-8.7075763674e-05
0.0002097013302
-0.0001112862076
0.00021748656645
-0.000133083088073
0.000220582645085
-0.000152704972935
0.000219668396383
-0.000170425699896
0.000215428396543
-0.000186515295853
0.000208623390767
-0.000201218748985
0.000199959548212
-0.000214745111874
0.000190051726963
-0.000227262750362
0.000179401636264
-0.000238900373741
0.000168397136261
-0.000249751987432
0.000157323990134
-0.000259883916084
0.000146383562684
-0.000269342148638
0.000135711423424
-0.00027815879924
0.000125393887096
-0.000286357103997
0.000115481338591
-0.000293954883908
0.000105998348237
-0.000300966708815
9.69511256411e-05
-0.000307405112857
8.8332979336e-05
-0.000313281202234
8.01283577345e-05
-0.000318604926132
7.2315892518e-05
-0.000323385196645
6.48707239138e-05
-0.000327629968664
5.77662856179e-05
-0.000331346335298
5.0975663747e-05
-0.000334540658958
4.44726067986e-05
-0.000337218736189
3.82322409338e-05
-0.000339385979446
3.22315446226e-05
-0.00034104760779
2.64496690912e-05
-0.000342208853754
2.08681381248e-05
-0.000342875195274
1.54707527443e-05
-0.000343052362157
1.02428541501e-05
-0.000342745339897
5.17075913483e-06
-0.000341957399779
2.454016804e-07
-0.000340702973059
-4.52455800944e-06
-0.000338996195896
-9.14332217999e-06
-0.000336842083042
-1.36308434495e-05
-0.000334250213563
-1.79919438839e-05
-0.000331231916951
-2.22330861827e-05
-0.00032779965033
-2.63610266517e-05
-0.000323966595853
-3.03830448173e-05
-0.000319746338956
-3.43072043471e-05
-0.000315152533585
-3.8142646921e-05
-0.000310198514886
-4.18998704361e-05
-0.0003048968409
-4.55909552173e-05
-0.000299258761093
-4.92296947716e-05
-0.000293293626711
-5.28315782229e-05
-0.000287008279339
-5.6413564515e-05
-0.000280406475571
-5.99935905935e-05
-0.000273488426802
-6.35897662337e-05
-0.00026625056011
-6.72192233847e-05
-0.000258685582291
-7.08966751738e-05
-0.000250782946266
-7.46327068137e-05
-0.000242529863849
-7.84318627293e-05
-0.00023391267037
-8.22910721897e-05
-0.00022491871305
-8.61980331083e-05
-0.000215538791635
-9.0130062787e-05
-0.000205768796936
-9.40550382361e-05
-0.000195613409897
-9.79291521624e-05
-0.000185087266312
-0.000101701763848
-0.000174217710702
-0.000105314870989
-0.000163046149109
-0.000108707946284
-0.000151627904624
-0.00011182301405
-0.000140032904261
-0.000114606398069
-0.000128346698629
-0.000117013242098
-0.000116661334602
-0.000119025381372
-0.000105087190375
-0.000120619517933
-9.37392142224e-05
-0.000121825995186
-8.27265309e-05
-0.000122699616102
-7.2167152263e-05
-0.000123292878072
-6.2191660074e-05
-0.000123715918831
-5.28787958546e-05
-0.000124184518449
-4.43081381861e-05
-0.000124829246458
-3.65332122127e-05
-0.000125892272338
-2.95614567296e-05
-0.000127650658937
-2.33444606776e-05
-0.00013038463048
-1.77349830659e-05
-0.000134361270139
-1.25056726007e-05
-0.00013958501955
-6.85479926462e-06
-0.000145690394173
-0.000142554311431
-2.89774766103e-05
0.000204961406544
-5.65123202554e-05
0.000224756934237
-8.17543668112e-05
0.000234943375339
-0.000104584029889
0.000240316227627
-0.000125114474561
0.000241113087487
-0.000143559013837
0.000238112933161
-0.000160175389977
0.000232044770032
-0.000175226618957
0.00022367461696
-0.000188953895885
0.000213686822221
-0.000201562682925
0.000202660510938
-0.000213217189426
0.000191056139548
-0.000224041976763
0.000179221920217
-0.000234127800431
0.00016740981025
-0.000243539172381
0.000155794930907
-0.000252321697222
0.000144493944362
-0.000260508096858
0.000133580282652
-0.000268122583184
0.000123095820668
-0.000275183723491
0.000113059484132
-0.000281706161607
0.00010347355919
-0.000287701587957
9.43284009753e-05
-0.000293179283789
8.56060487208e-05
-0.000298146465866
7.72830696188e-05
-0.000302608567052
6.93328199932e-05
-0.000306569519316
6.17272326341e-05
-0.00031003206004
5.44381990692e-05
-0.000312998058636
4.74385998154e-05
-0.000315468852209
4.07030287317e-05
-0.000317445580192
3.4208266624e-05
-0.000318929479875
2.793356258e-05
-0.000319922117065
2.18607688747e-05
-0.000320425568825
1.59741977584e-05
-0.000320442702336
1.02599806291e-05
-0.000319978037697
4.70608728538e-06
-0.000319038946225
-6.93697133646e-07
-0.000317629576481
-5.93393486395e-06
-0.000315754012132
-1.10188934445e-05
-0.000313422666332
-1.59621960236e-05
-0.000310646551837
-2.07680650273e-05
-0.000307437974117
-2.54416704673e-05
-0.000303810446834
-2.99885604233e-05
-0.000299778521784
-3.44149763193e-05
-0.000295357557085
-3.87281754734e-05
-0.00029056341743
-4.29367930166e-05
-0.000285412082306
-4.70512120294e-05
-0.000279919140119
-5.10839039475e-05
-0.00027409915803
-5.50496834848e-05
-0.000267964935734
-5.89658072736e-05
-0.000261526680891
-6.28518262513e-05
-0.000254791179227
-6.67290993136e-05
-0.000247761047764
-7.06199049268e-05
-0.000240434245387
-7.45460331585e-05
-0.000232803947933
-7.85269801779e-05
-0.00022485885606
-8.2577806376e-05
-0.000216584426571
-8.67062999923e-05
-0.000207964387773
-9.09111188491e-05
-0.00019898280101
-9.51796277364e-05
-0.00018962787682
-9.94849948755e-05
-0.000179892223264
-0.000103790699669
-0.000169779526626
-0.000108041856668
-0.000159304373162
-0.000112176925246
-0.000148496472785
-0.000116122779323
-0.000137402604666
-0.000119801822545
-0.000126085768819
-0.000123139858195
-0.000114625839562
-0.000126066335835
-0.000103123583878