/*--------------------------------*- C++ -*----------------------------------*\
| =========                 |                                                 |
| \\      /  F ield         | OpenFOAM: The Open Source CFD Toolbox           |
|  \\    /   O peration     | Version:  v1806                                 |
|   \\  /    A nd           | Web:      www.OpenFOAM.com                      |
|    \\/     M anipulation  |                                                 |
\*---------------------------------------------------------------------------*/
FoamFile
{
    version     2.0;
    format      ascii;
    class       surfaceScalarField;
    location    "800";
    object      phia;
}
// * * * * * * * * * * * * * * * * * * * * * * * * * * * * * * * * * * * * * //

dimensions      [0 3 -1 0 0 0 0];
oriented        oriented;


internalField   nonuniform List<scalar> 
12640
(
-0.0033932191459
0.00339335347505
-0.00726120192882
0.00386816714744
-0.0113145991298
0.00405358769835
-0.0137952619567
0.00248082983583
-0.0148699175029
0.00107487028332
-0.0165674210772
0.0016977082129
-0.0178489857223
0.00128172455444
-0.0189212231982
0.00107237561463
-0.019817641322
0.000896546307555
-0.0205611408863
0.000743621590963
-0.0211811341572
0.000620109032899
-0.021701019233
0.000519997907419
-0.0221374558697
0.000436546233844
-0.0225032438307
0.000365897703943
-0.0228090312769
0.000305896836221
-0.0230638396457
0.000254920238971
-0.023275250895
0.000211524887928
-0.0234495741542
0.000174440933439
-0.0235920366979
0.000142583449023
-0.0237069495565
0.000115038798424
-0.0237978608022
9.10414172068e-05
-0.0238676809973
6.99560254185e-05
-0.0239188016051
5.12613481418e-05
-0.0239531896875
3.45348443303e-05
-0.0239724756922
1.94381184511e-05
-0.0239780207512
5.70336856985e-06
-0.0239709789861
-6.87783215694e-06
-0.0239523463704
-1.84624354457e-05
-0.023923004357
-2.91660385848e-05
-0.0238837793198
-3.90428560497e-05
-0.0238355070843
-4.80841563439e-05
-0.0237794299954
-5.58828742925e-05
-0.0237176212837
-6.16083712535e-05
-0.0236540743413
-6.33404037168e-05
-0.0235830946477
-7.07671796959e-05
-0.0234489746363
-0.000133902190022
-0.0232583434209
-0.00019040812441
-0.0230214106569
-0.000236705412934
-0.0227592262366
-0.000261952742049
-0.022480658888
-0.000278332523938
-0.0221918651398
-0.000288555622952
-0.0218966597604
-0.000294965466748
-0.0215975584281
-0.000298859475186
-0.0212963537164
-0.000300962649615
-0.0209944544801
-0.000301656776677
-0.0206930911816
-0.000301122308637
-0.0203934168229
-0.000299434586076
-0.0200965667841
-0.00029661338879
-0.0198036946744
-0.000292638250278
-0.0195160093766
-0.000287456091765
-0.019234799221
-0.000280985173775
-0.0189614580097
-0.00027312220764
-0.0186974949012
-0.000263749542556
-0.0184445406168
-0.000252747752563
-0.0182043295419
-0.000240010915473
-0.0179786689815
-0.000225468183992
-0.0177693761764
-0.000209107425007
-0.017578196478
-0.000191002531179
-0.0174066879236
-0.000171338686618
-0.0172560903019
-0.000150436080303
-0.0171271704071
-0.000128765637172
-0.0170200664882
-0.000106957793234
-0.0169341278676
-8.57994591269e-05
-0.0168677739681
-6.62223930581e-05
-0.01681836472
-4.92841487619e-05
-0.0167821032794
-3.61433226823e-05
-0.0167539426565
-2.80482454592e-05
-0.0167275380681
-2.62984340925e-05
-0.0166951213916
-3.23154920372e-05
-0.0166475839382
-4.74413097738e-05
-0.0165740027413
-7.3488939322e-05
-0.016462810923
-0.000111102371917
-0.0162989785477
-0.000163746129226
-0.0160741577364
-0.000224733678886
-0.0157607236796
-0.000313352948355
-0.015380849535
-0.00037978933439
-0.0147309211575
-0.000649849907765
-0.0138709600254
-0.000859894050306
-0.00941772710013
-0.00445302806252
-0.00941765658436
-0.00147352156158
0.00486714365408
-0.00473568363871
0.00713061901731
-0.00705189242695
0.00637003942357
-0.0102183183236
0.00564738493714
-0.0137980206016
0.00465466465871
-0.0161254010617
0.00402515788408
-0.0183724526203
0.00352884365751
-0.0204780520074
0.00317803886327
-0.0224680251262
0.00288658563056
-0.0243455862065
0.00262124641301
-0.026101560264
0.00237614722382
-0.0277316399931
0.0021501395086
-0.02923704949
0.00194201764016
-0.0306222278141
0.00175113708973
-0.0318933407891
0.00157707161408
-0.0330574150257
0.00141905706167
-0.0341217472458
0.00127592129138
-0.0350935113355
0.00114627139226
-0.0359795251439
0.00102866595948
-0.0367861269375
0.000921712596714
-0.0375191253965
0.000824114792494
-0.0381837878424
0.000734697560952
-0.0387848589356
0.000652414881809
-0.0393265870062
0.000576350197567
-0.0398127640347
0.000505706100513
-0.0402467596247
0.000439795260156
-0.0406315645182
0.000378027262261
-0.0409698202987
0.000319899280987
-0.0412638714416
0.000264995112822
-0.0415157672388
0.000212968947767
-0.0417273324263
0.000163601206215
-0.0418997444954
0.000116655557916
-0.0420338967457
7.26746324116e-05
-0.0421318154748
3.47151321643e-05
-0.0422291177181
2.66759383737e-05
-0.0423942841245
3.14103596104e-05
-0.0425457571357
-3.87861153931e-05
-0.0426463684386
-0.000135941107656
-0.0426884169062
-0.000219749127197
-0.0426662942036
-0.000300297129186
-0.0425753631064
-0.0003793272939
-0.0424132739503
-0.000456893517733
-0.0421781496389
-0.000533822353719
-0.0418679969125
-0.000610953664342
-0.0414806925301
-0.000688800193963
-0.0410140512736
-0.000767603726275
-0.040465883098
-0.000847444731279
-0.0398340467317
-0.00092829415804
-0.0391165117215
-0.00101002045052
-0.0383114361689
-0.00109238239352
-0.0374172594515
-0.00117501626611
-0.0364328176599
-0.0012574228174
-0.0353574803808
-0.00133894992452
-0.034191317561
-0.00141877872754
-0.0329352901534
-0.00149591121971
-0.0315914668796
-0.00156916973653
-0.0301632508887
-0.00163720668498
-0.0286556070556
-0.00169853508711
-0.0270752624201
-0.00175157708219
-0.0254308598566
-0.00179473770281
-0.0237330324109
-0.00182649702824
-0.0219943777615
-0.00184552133492
-0.020229310052
-0.00185078060067
-0.0184537842783
-0.0018416660264
-0.016684896396
-0.00181809393077
-0.0149403814466
-0.00178058398741
-0.0132380404049
-0.00173031850749
-0.0115951288672
-0.00166914236123
-0.010027757594
-0.00159962205239
-0.00855029528056
-0.00152484118473
-0.00717483202455
-0.00144889141304
-0.00591061852262
-0.00137525632843
-0.0047634824687
-0.00131082219299
-0.00373524822886
-0.00125290973252
-0.00282075299162
-0.0012277869816
-0.00201242426915
-0.00118806500613
-0.00126083286237
-0.0014013834405
-0.00058457751012
-0.00153607749745
0.000586990576231
-0.00562454905419
-0.00883059799127
-0.0063613211737
0.0112285736508
-0.00833768708841
0.00910713291456
-0.00819195552031
0.00622439669891
-0.00842880360255
0.00588429923727
-0.00916686754762
0.00539277993834
-0.01015823309
0.00501656585236
-0.0114105200086
0.00478116648103
-0.0127623732991
0.00452992613888
-0.0140968643861
0.00422110904503
-0.0153516412379
0.00387605493158
-0.016497477427
0.00352201340418
-0.0175239799859
0.00317667054276
-0.0184316653869
0.00284972968906
-0.0192266452579
0.00254614194553
-0.0199174127754
0.0022678627751
-0.0205131635896
0.00201483022964
-0.0210229435134
0.00178572295188
-0.0214552082702
0.00157855713038
-0.0218176133574
0.00139109214394
-0.0221169480615
0.00122106818496
-0.0223591487914
0.0010663371876
-0.022549356323
0.000924927044067
-0.0226919889281
0.000795070797813
-0.0227908245613
0.000675209867711
-0.0228490800262
0.000563987453091
-0.0228694892986
0.000460231522177
-0.0228543737203
0.000362940938173
-0.0228057070591
0.00027126329413
-0.0227251756744
0.000184496998953
-0.0226142216181
0.000102049805804
-0.0224741544377
2.35717353735e-05
-0.0223061245915
-5.1334766024e-05
-0.0221108659006
-0.000122541636511
-0.0218810046531
-0.000195101755205
-0.0215700880662
-0.000284194102178
-0.0212251650383
-0.000313465292462
-0.0209109204252
-0.000352982068098
-0.0206350080679
-0.000411804521547
-0.0203912875616
-0.000463419981124
-0.0201820212731
-0.00050951383284
-0.0200078019685
-0.000553496946263
-0.0198685705563
-0.000596075752222
-0.0197647354604
-0.000637608866385
-0.0196968828377
-0.000678758549023
-0.0196653469358
-0.000720289544722
-0.0196699529946
-0.000762952246593
-0.0197098554457
-0.000807498515573
-0.0197834002184
-0.000854706927193
-0.0198879967749
-0.000905383408874
-0.0200199970325
-0.000960343020459
-0.0201745885106
-0.00102038780213
-0.0203456995046
-0.00108627617019
-0.020525927658
-0.00115868825862
-0.0207064948244
-0.00123817926812
-0.0208772476737
-0.00132512811199
-0.021026712823
-0.00141967538844
-0.0211422308515
-0.00152166130525
-0.0212101783526
-0.00163056111307
-0.0212162973265
-0.00174543324537
-0.021146128404
-0.00186488244475
-0.0209855465021
-0.00198705608065
-0.0207213688466
-0.00210967658737
-0.0203420029734
-0.00223012505853
-0.0198380774124
-0.00234557030139
-0.0192030023111
-0.00245314831531
-0.0184333987768
-0.0025501665575
-0.017529352348
-0.00263434408879
-0.0164944731518
-0.00270400007066
-0.01533572806
-0.00275834523936
-0.01406310463
-0.00279744135718
-0.0126889572694
-0.00282301420853
-0.0112272961822
-0.00283689020594
-0.00969166425307
-0.00284642562498
-0.00809437526263
-0.0028501656232
-0.00643986330038
-0.00288226814242
-0.00474131635206
-0.00288657621418
-0.00300357165303
-0.00313909910049
-0.00142272907724
-0.00311690603856
-8.00000491876e-06
-0.00703919919883
-0.00883860380197
-0.0117253586718
0.0229542336427
-0.0079809157374
0.00536279246144
-0.00632952278542
0.00457306232093
-0.00656909820387
0.00612391935254
-0.00777251555619
0.00659623199446
-0.00939995070694
0.00664402643961
-0.0111271664048
0.00650840186682
-0.0127870161551
0.00618979181382
-0.0143142209392
0.00574832754519
-0.0156962351934
0.00525808063197
-0.016940489768
0.00476627697854
-0.0180608898927
0.00429707691013
-0.0190729347723
0.00386177763456
-0.0199913094814
0.00346451667273
-0.0208287528106
0.00310530267758
-0.0215958334116
0.00278190446276
-0.0223011565336
0.00249103634823
-0.0229516754409
0.00222906369728
-0.0235529977567
0.00199239903376
-0.0241096564073
0.00177770921453
-0.0246253440543
0.00158200448406
-0.0251031030293
0.0014026639193
-0.025545480117
0.00123742344107
-0.0259546457827
0.00108434977676
-0.0263324904358
0.000941804386142
-0.026680697506
0.000808409967703
-0.02700079963
0.000683012829916
-0.0272942267419
0.000564659625349
-0.0275623118767
0.000452550037651
-0.0278063525406
0.000346058057656
-0.0280273595062
0.00024454513885
-0.0282264288956
0.000147700917582
-0.0284035517727
5.45466199316e-05
-0.0285668287632
-3.18600065016e-05
-0.0287354765344
-0.000115582986124
-0.0288188815434
-0.000230097968381
-0.0288332483556
-0.000338654614825
-0.0287892615902
-0.000455831882751
-0.0286793518975
-0.000573371870367
-0.028502719216
-0.000686190077868
-0.0282613155764
-0.000794945599715
-0.0279569504457
-0.000900487305691
-0.0275916418481
-0.00100296505939
-0.0271680149966
-0.00110243429684
-0.0266893265064
-0.00119902768171
-0.0261594474537
-0.00129288197787
-0.0255828940618
-0.00138410279068
-0.0249648673675
-0.00147278512484
-0.0243112628063
-0.00155903904989
-0.023628646554
-0.0016430104599
-0.0229241886511
-0.00172489581493
-0.0222055540796
-0.00180496040221
-0.021480736034
-0.00188355427156
-0.0207578314857
-0.0019611307967
-0.0200447452874
-0.00203825907699
-0.0193488306323
-0.00211563335979
-0.0186764647422
-0.00219406791399
-0.0180325864098
-0.00227447836084
-0.0174202178473
-0.00235783788875
-0.0168400223501
-0.00244511197856
-0.0162899421208
-0.0025371673852
-0.0157649791447
-0.00263466841189
-0.0152571615598
-0.0027379684253
-0.0147557372053
-0.00284701800159
-0.0142475991874
-0.00296130645131
-0.0137179367447
-0.00307984641838
-0.0131510652782
-0.00320122954527
-0.0125313953275
-0.0033236810141
-0.011844468058
-0.00344527977486
-0.0110780613436
-0.00356385183049
-0.0102231785401
-0.00367789630559
-0.00927524207113
-0.00378482215423
-0.00823406173953
-0.00388759613877
-0.00710548729437
-0.00397872871358
-0.00589522438964
-0.00409251375241
-0.00462387467837
-0.00415791294297
-0.0032895568619
-0.00447340140962
-0.00202653082567
-0.00437989989289
-0.000599875777364
-0.00846587475595
-0.00943846342659
-0.00267082345261
0.0256250741579
-0.00140571631785
0.0040977247252
-0.00325397612735
0.0064213605979
-0.00555799115625
0.00842796675137
-0.00773674529353
0.00877501160907
-0.00972809869072
0.0086353991955
-0.0114563501032
0.00823666757694
-0.0129191040923
0.00765255665383
-0.0141618092413
0.00699104078901
-0.0152328125902
0.00632908971477
-0.0161697885976
0.00570325621596
-0.0170005670854
0.00512785581146
-0.0177454281409
0.00460663610896
-0.018418762495
0.00413784500844
-0.0190304976134
0.0037170284076
-0.0195873793156
0.00333877297223
-0.0200939958473
0.0029976361914
-0.020553514449
0.00268856169136
-0.0209681798448
0.0024070403908
-0.0213396465034
0.00214914797415
-0.021669194039
0.00191152087062
-0.021957865696
0.00169130073032
-0.0222065515687
0.00148607146086
-0.0224160392298
0.00129379610689
-0.0225870405819
0.00111276166838
-0.0227202069031
0.00094152897943
-0.0228161350527
0.000778891187521
-0.0228753643099
0.000623836065775
-0.0228983815258
0.000475512132264
-0.0228855813168
0.000333199821302
-0.0228373503068
0.000196253889472
-0.0227537773827
6.40649763282e-05
-0.02263488044
-6.44155730465e-05
-0.0224758095041
-0.000190999025709
-0.0222883745227
-0.000303088875848
-0.0221153060544
-0.000403240013825
-0.0219511672534
-0.000502869300242
-0.0218051429909
-0.000601934438164
-0.0216769996355
-0.00070159563188
-0.0215632106863
-0.000800061391338
-0.0214610437564
-0.000897196667044
-0.0213677143372
-0.000993902223825
-0.0212798453485
-0.00109092081498
-0.0211935639124
-0.00118880311863
-0.0211045922156
-0.00128808737401
-0.021008263805
-0.00138929815383
-0.0208995683673
-0.00149288583661
-0.0207732491741
-0.00159919079774
-0.0206239455899
-0.00170842813903
-0.0204463682172
-0.00182067132487
-0.0202355084339
-0.00193583731265
-0.0199868727959
-0.00205367493811
-0.0196967374652
-0.00217376599944
-0.0193624022389
-0.00229553893984
-0.0189824278394
-0.00241830330639
-0.0185568235613
-0.00254130350891
-0.018087157357
-0.00266379649169
-0.0175765484342
-0.00278514542945
-0.0170295159408
-0.00290492480992
-0.0164516588075
-0.00302301923881
-0.0158491686787
-0.00313970385558
-0.0152281949842
-0.00325568419674
-0.0145941142646
-0.00337208744319
-0.0139507752632
-0.00349039111092
-0.013299809413
-0.00361230259085
-0.0126401033763
-0.00373957859831
-0.0119675082725
-0.00387384696075
-0.0112748703098
-0.00401633720511
-0.0105524207809
-0.00416774367428
-0.00978862495075
-0.00432765776394
-0.00897144600029
-0.00449508129323
-0.00809056484706
-0.00466570467824
-0.00713950430298
-0.00483865516407
-0.00612068332651
-0.00499754332999
-0.00504301988664
-0.00517017203234
-0.00393756607527
-0.00526335660746
-0.00280545864477
-0.00560550270353
-0.00176363719121
-0.00542173553211
-0.000455550798662
-0.00977393551584
-0.0098940318514
-0.000144524658104
0.0257697165777
-0.00056465133494
0.00451789586958
-0.00388656369572
0.00974330156016
-0.00666810399258
0.0112095305288
-0.00883152224778
0.0109384491066
-0.0105641058269
0.0103679979308
-0.0119348881651
0.00960746175318
-0.0130345132738
0.00875219088466
-0.0139543226695
0.00791085721907
-0.0147581548342
0.00713292692699
-0.0154851807304
0.00643028511647
-0.0161589532475
0.0058016290688
-0.0167932169901
0.00524089795414
-0.017395401519
0.00474002481491
-0.0179690208818
0.00429063978536
-0.0185153213891
0.00388506221097
-0.0190343429456
0.00351664277782
-0.01952556488
0.00317976510538
-0.0199882830721
0.002869736123
-0.0204218173594
0.00258265614869
-0.0208256179743
0.00231529134755
-0.0211993107975
0.00206495977331
-0.0215427110226
0.00182943389663
-0.0218558188066
0.00160686253953
-0.0221388099764
0.00139570755404
-0.0223920237582
0.00119469402453
-0.0226159540579
0.00100276891044
-0.0228112394464
0.00081906550565
-0.0229786624297
0.000642875376099
-0.0231191332826
0.000473607572908
-0.0232337454143
0.000310799162091
-0.0233237658434
0.000154015319209
-0.0233915599399
3.30474820716e-06
-0.0234410346277
-0.000141601796533
-0.0234506528937
-0.000293551598473
-0.0234106102709
-0.000443366398073
-0.0233227283307
-0.000590837701437
-0.0231877536324
-0.000736997983589
-0.0230085175536
-0.000880922640234
-0.0227874952696
-0.00102117642768
-0.0225278098724
-0.00115697614166
-0.0222333997431
-0.00128840754214
-0.0219085838444
-0.00141583234888
-0.0215578357242
-0.00153964715268
-0.0211856712396
-0.00166034726698
-0.0207964955038
-0.0017785686773
-0.0203944158988
-0.00189505875992
-0.0199830622279
-0.00201063626157
-0.0195654238184
-0.00212615595434
-0.0191437119101
-0.00224247026128
-0.0187192536874
-0.00236037935828
-0.0182924343971
-0.00248057492738
-0.0178626967934
-0.00260358042741
-0.0174286120604
-0.00272969677913
-0.0169880256015
-0.00285895851523
-0.0165382815142
-0.00299111222265
-0.0160765130618
-0.0031256249486
-0.0155999801631
-0.00326173401651
-0.0151064140087
-0.00339854199256
-0.0145943226522
-0.00353515731722
-0.0140631955232
-0.00367087318823
-0.0135135542742
-0.00380536348395
-0.0129468017272
-0.00393887372951
-0.0123648580967
-0.00407236448788
-0.0117695924004
-0.00420759395392
-0.011162128172
-0.00434706468265
-0.0105420763238
-0.00449391689768
-0.00990686792444
-0.00465156009072
-0.00925127708035
-0.00482334563911
-0.00856732932484
-0.00501161315857
-0.00784467525499
-0.00521773969984
-0.00707210608677
-0.00543827514516
-0.00623938958266
-0.00567136996351
-0.00534283293616
-0.00589409818557
-0.00438455080146
-0.00612844956769
-0.00339248840153
-0.00625541791636
-0.00236941731162
-0.00662857184599
-0.00146543858358
-0.00632570196586
-0.000284080478988
-0.0109553259932
-0.0101781144798
0.000514163725306
0.0252555075106
-0.00143723424121
0.00646929336681
-0.00529315228566
0.0135992317466
-0.00778651245712
0.0137029049149
-0.00950789948846
0.0126598499751
-0.0107785872397
0.0116386982046
-0.0117337155362
0.0105626008167
-0.0124993617017
0.0095178462653
-0.0131663438015
0.00857784698149
-0.0137848920584
0.00775148146909
-0.0143800403356
0.00702543816139
-0.0149631239924
0.00638471584461
-0.0155377148606
0.00581549003099
-0.016103046221
0.00530535516647
-0.0166561807653
0.00484377087811
-0.0171933145314
0.00442218974259
-0.0177105062861
0.00403382541118
-0.0182040620542
0.0036733085512
-0.0186707166676
0.00333637523597
-0.0191076972233
0.00301961774404
-0.0195127195692
0.00272029139635
-0.0198839521789
0.00243616649119
-0.0202199656857
0.00216541811233
-0.0205196807129
0.00190654463309
-0.020782317999
0.00165830850516
-0.0210073552295
0.00141969127893
-0.0211944887972
0.00118985910946
-0.0213436043764
0.000968134068988
-0.0214547468098
0.000753967364301
-0.021528115091
0.000546921731653
-0.0215639979295
0.000346624484745
-0.0215628377304
0.000152793996541
-0.0215245920133
-3.5005473436e-05
-0.0214496707159
-0.000216591205537
-0.0213552072038
-0.000388086286278
-0.0212454393482
-0.000553207855421
-0.0211223064204
-0.000714046390978
-0.0209877903921
-0.000871591598249
-0.020842192634
-0.00102659954137
-0.0206844051379
-0.00117904415819
-0.0205126171776
-0.00132884517519
-0.0203248557954
-0.00147625026972
-0.0201191092697
-0.00162166025663
-0.0198933999967
-0.00176543721823
-0.0196459296232
-0.00190789763446
-0.0193752195487
-0.00204935730568
-0.0190802095649
-0.00219014568312
-0.0187603187446
-0.00233060178673
-0.0184154741106
-0.00247107292555
-0.0180461006519
-0.00261191312131
-0.0176530711977
-0.0027534751933
-0.017237616688
-0.00289609230951
-0.0168012057477
-0.0030400507038
-0.0163454037177
-0.00318555422541
-0.0158717290974
-0.00333268466886
-0.0153815264358
-0.00348136227521
-0.014875879839
-0.00363131490602
-0.0143555871744
-0.00378206589046
-0.0138212091425
-0.00393295526507
-0.0132731955956
-0.00408320213064
-0.0127120651082
-0.00423203119334
-0.0121386014128
-0.00437885100453
-0.0115539975425
-0.00452349794302
-0.01095989338
-0.00466648558323
-0.0103582199455
-0.00480928105317
-0.00975087360501
-0.0049544216628
-0.0091391414725
-0.00510565661918
-0.00852305505304
-0.0052676517648
-0.00790070346406
-0.00544569976648
-0.00726774012119
-0.0056445772275
-0.00661713385533
-0.00586834429708
-0.00593988949311
-0.00611551653266
-0.00522598520457
-0.00638527051629
-0.00446893863088
-0.00665114077486
-0.00366470304817
-0.006932683905
-0.00283401892817
-0.00708609961179
-0.00197278213615
-0.00748980801119
-0.00125306448282
-0.00704543795559
-0.000212721507746
-0.0119956686033
-0.0103908509398
0.000562034974395
0.0246935006862
-0.002430752707
0.0094620878351
-0.00624013889476
0.0174086227959
-0.00819549512477
0.0156582688538
-0.00946113543038
0.0139254996197
-0.0103599354485
0.0125375081002
-0.0110396268609
0.0112423020473
-0.0116227972804
0.0101010258549
-0.0121772942837
0.00913235246084
-0.0127321364336
0.00830633117099
-0.0132977901273
0.00759109849355
-0.0138755787245
0.00696250993241
-0.0144619563353
0.00640187183901
-0.0150510827622
0.00589448421406
-0.015636396391
0.00542908530827
-0.0162114679831
0.00499726007583
-0.0167704224364
0.00459277629742
-0.0173081235431
0.00421100363646
-0.0178202252059
0.00384846820644
-0.0183031464306
0.00350252755208
-0.0187540076215
0.00317113826285
-0.019170551698
0.00285269335477
-0.0195510647738
0.00254591093073
-0.01989430305
0.0022497596778
-0.0201994301469
0.0019634092615
-0.0204659645507
0.00168619632642
-0.0206937390685
0.00141760112644
-0.0208828669277
0.00115722636121
-0.0210337242998
0.000904785980349
-0.0211469218797
0.000660077455818
-0.0212233365721
0.0004229941807
-0.0212640301129
0.000193439634587
-0.0212704924525
-2.8594149296e-05
-0.0212433723987
-0.000243765262684
-0.0211771298753
-0.000454385021436
-0.0210718461708
-0.00065854951357
-0.020929040398
-0.000856911518783
-0.0207509724801
-0.00104972003733
-0.0205406189966
-0.00123701429234
-0.0203010020155
-0.00141872291917
-0.0200350861206
-0.00159482289326
-0.0197458360101
-0.00176556201587
-0.0194361073687
-0.00193144985973
-0.0191084628582
-0.00209314179743
-0.0187650403096
-0.00225137888825
-0.0184074816375
-0.00240697311939
-0.0180368999992
-0.00256078246981
-0.0176538859161
-0.00271366884707
-0.0172585565628
-0.00286645271354
-0.0168506453102
-0.00301987211506
-0.016429619828
-0.00317454542723
-0.0159948152747
-0.00333093851121
-0.0155455663921
-0.00348933792715
-0.015081322747
-0.00364983283999
-0.0146017328449
-0.00381230606932
-0.0141066876843
-0.00397643546797
-0.0135963228578
-0.00414170431249
-0.0130709892213
-0.00430742074429
-0.012531207896
-0.00447275455313
-0.0119776474048
-0.00463677748631
-0.011411128642
-0.00479856187203
-0.0108326915728
-0.00495729717444
-0.0102436786929
-0.00511251732831
-0.00964584576671
-0.00526432233524
-0.00904134361454
-0.00541378484548
-0.00843267520477
-0.00556308916368
-0.00782231026497
-0.00571601893951
-0.00721229627244
-0.00587766115982
-0.00660361333844
-0.00605437706899
-0.00599569580541
-0.00625248793037
-0.00538598110565
-0.00647805160778
-0.00477026419047
-0.00673122554376
-0.00414328965321
-0.00701223805474
-0.00350214042658
-0.00729228535015
-0.0028440262971
-0.00759079596197
-0.00218798513565
-0.00774214142693
-0.0015219200642
-0.00815587644755
-0.0010249015136
-0.00754245461401
-0.00014930576398
-0.0128712909594
-0.0105401692254
0.000423488834168
0.0242699561067
-0.0033471816947
0.0132327368492
-0.0067267707279
0.0207882061233
-0.00806994796106
0.0170014469902
-0.00896407695213
0.0148196337851
-0.00961359723695
0.0131870359694
-0.0101453676
0.0117740809273
-0.010654927022
0.0106105939978
-0.0111808634968
0.00965829722563
-0.0117340102648
0.00885948570343
-0.0123146442712
0.00817173950249
-0.012917833903
0.00756570578918
-0.0135359460018
0.00701998915003
-0.0141604046701
0.00651894695114
-0.0147827546157
0.00605143791445
-0.015395197813
0.00560970434168
-0.0159908312748
0.00518840901639
-0.0165637226329
0.00478389227133
-0.0171088922232
0.00439363294933
-0.0176222425582
0.00401587078088
-0.0181004635472
0.00364934981108
-0.0185409322812
0.00329315021195
-0.0189416180213
0.00294658233428
-0.0193009978597
0.0026091226499
-0.0196179847526
0.0022803767672
-0.0198918679542
0.00196005757356
-0.0201222651866
0.00164797384677
-0.0203090838147
0.00134401788383
-0.0204524938389
0.00104816630766
-0.020552900031
0.00076045138606
-0.0206109389176
0.000480998340466
-0.0206274319333
0.000209895506952
-0.0206035771309
-5.24884417232e-05
-0.0205416199954
-0.00030576405323
-0.0204461968901
-0.000549851159156
-0.0203186292423
-0.000786161128462
-0.0201605792831
-0.00101500619167
-0.0199734385885
-0.00123690582392
-0.0197583103341
-0.00145218782813
-0.019516097867
-0.00166098047322
-0.0192476105515
-0.00186335491267
-0.0189537387656
-0.00205947774261
-0.0186355623544
-0.00224966926431
-0.018294363465
-0.0024343823788
-0.0179315974809
-0.00261418508794
-0.0175488433658
-0.00278976566265
-0.0171477294434
-0.00296193286835
-0.0167298384534
-0.00313159410377
-0.0162966087552
-0.00329971431713
-0.015849249209
-0.00346726101353
-0.0153886824396
-0.00363513886748
-0.0149155266177
-0.00380411821051
-0.014430120665
-0.00397476487435
-0.0139325895286
-0.00414738206474
-0.0134229398068
-0.00432197094525
-0.0129011666096
-0.00449822095038
-0.0123673514412
-0.00467552896114
-0.0118217362411
-0.00485304275953
-0.0112647478823
-0.00502974719488
-0.01069701727
-0.00520451002207
-0.0101193534923
-0.00537622527578
-0.00953277229163
-0.00554387602742
-0.00893849325524
-0.00570679175832
-0.00833808307623
-0.00586472626335
-0.00773340104506
-0.00601845833546
-0.00712682729607
-0.00616965288013
-0.00652090005119
-0.00632193452299
-0.00591835887696
-0.00648018977716
-0.00532159502787
-0.00665112811833
-0.00473258066692
-0.00684148904874
-0.00415239453084
-0.0070582249961
-0.00358161058164
-0.00730199776115
-0.00302140273341
-0.0075724364802
-0.00247620716329
-0.00783747606518
-0.00194907203288
-0.00811793007187
-0.00146094856979
-0.00823026858405
-0.00100152259816
-0.00861530409578
-0.000731354076658
-0.00781264049724
-3.58249359811e-05
-0.0135668393967
-0.0105760053091
0.000213174869247
0.0240567769392
-0.00404763572629
0.0174935357619
-0.0067536706678
0.0234942312824
-0.00756166259133
0.0178094357827
-0.00822713398026
0.0154851069518
-0.00874948215005
0.0137093892811
-0.0092310061958
0.0122556120478
-0.00973510703983
0.0111147025061
-0.0102773580245
0.0102005558964
-0.0108581636351
0.00944029851414
-0.0114726619408
0.00878624449055
-0.0121128280196
0.00820587781782
-0.0127690779009
0.007676244243
-0.0134315853206
0.00718145860781
-0.0140910608505
0.00671091661649
-0.0147391335787
0.0062577789292
-0.0153685046243
0.00581778049835
-0.0159729699091
0.00538835636752
-0.0165473655627
0.00496802570332
-0.0170874725463
0.00455597301129
-0.0175899054312
0.00415177603644
-0.0180520017894
0.00375523791219
-0.0184717207308
0.00336629060095
-0.0188475548466
0.00298494402049
-0.0191784561856
0.00261126330606
-0.0194637757835
0.0022453602808
-0.0197032155994
0.00188739471927
-0.019896789355
0.00153757060295
-0.0200447982736
0.00119615217079
-0.0201477994374
0.000863427472263
-0.0202066366238
0.000539808607095
-0.0202223575728
0.000225587781004
-0.0201964834508
-7.83929459414e-05
-0.0201291343134
-0.000373145007117
-0.0200203934833
-0.000658624322697
-0.0198719435547
-0.000934643751332
-0.019685638429
-0.00120134405391
-0.0194637643337
-0.00145881255265
-0.0192088180443
-0.00170716633704
-0.0189233091644
-0.00194652101305
-0.0186096553219
-0.00217703956348
-0.0182701526777
-0.00239901019649
-0.0179069661084
-0.00261288438284
-0.0175221093631
-0.00281926626689
-0.0171174290428
-0.00301889092368
-0.0166946043533
-0.00321261409489
-0.0162551545989
-0.00340140441987
-0.0158004434781
-0.00358632493248
-0.0153316756248
-0.00376849967281
-0.0148498863868
-0.00394906541872
-0.0143559287858
-0.00412910925417
-0.0138504644729
-0.00430959283001
-0.0133339686668
-0.00449126853666
-0.0128067541361
-0.00467460196079
-0.0122690236457
-0.00485970440328
-0.011720942497
-0.00504630271723
-0.0111627225075
-0.00523374736584
-0.0105947158219
-0.00542104574923
-0.0100174448727
-0.00560701257097
-0.00943167805684
-0.00579026928927
-0.0088383755925
-0.00596951864165
-0.00823875600725
-0.00614348458991
-0.00763416613414
-0.00631136899439
-0.00702631078892
-0.00647256723761
-0.00641695850195
-0.00662779456062
-0.0058085374315
-0.00677805627956
-0.00520346224914
-0.00692699076575
-0.00460481336107
-0.0070788199862
-0.0040155517136
-0.00724037150542
-0.00343966850302
-0.00741735565979
-0.00288111112129
-0.00761676722399
-0.00234511757169
-0.00783797839497
-0.00184093298648
-0.00807661260908
-0.00138145827042
-0.00829694579093
-0.000980690389097
-0.00851870144171
-0.000647895772241
-0.00856306561958
-0.000439531797518
-0.00882367782584
-0.000357791926914
-0.00789438969353
0.000228895572458
-0.0141535458348
-0.010347131261
-4.61546539141e-06
0.024061341867
-0.00450469724779
0.0219935885714
-0.00644076455057
0.0254302837599
-0.0068736791552
0.0182423429435
-0.00743829465836
0.0160497213372
-0.00791050289571
0.0141816006149
-0.00839072636989
0.0127358408883
-0.0089150145032
0.0116389969846
-0.00948579533635
0.010771343006
-0.0100992174161
0.0100537265165
-0.0107479969885
0.00943502932908
-0.0114223855092
0.00888027101432
-0.0121116679281
0.00836553056703
-0.0128052990692
0.0078750928934
-0.0134935404206
0.0073991601214
-0.0141677590583
0.0069319986743
-0.0148205254047
0.00647054668076
-0.0154455913142
0.00601342078853
-0.0160378018933
0.00556023329087
-0.0165929764076
0.00511114300577
-0.0171077822913
0.00466657574224
-0.0175796153806
0.00422706317196
-0.0180064935011
0.00379315915143
-0.0183869654734
0.00336540472362
-0.0187200354238
0.00294432022923
-0.0190051012727
0.00253041141679
-0.0192419046213
0.0021241816194
-0.019430491878
0.00172613977118
-0.0195711823978
0.00133682292888
-0.0196645429451
0.000956766765685
-0.0197113679405
0.000586610888386
-0.0197126250066
0.000226820886795
-0.0196694990647
-0.000121544052989
-0.0195836997282
-0.000458970196457
-0.0194567207008
-0.000785629253339
-0.019289894453
-0.00110149567957
-0.0190848135357
-0.00140645031322
-0.0188431971777
-0.0017004536489
-0.0185669043171
-0.00198348321865
-0.0182579122576
-0.00225553613779
-0.0179183029343
-0.00251667088376
-0.0175502632977
-0.00276707055362