/*--------------------------------*- C++ -*----------------------------------*\
| =========                 |                                                 |
| \\      /  F ield         | OpenFOAM: The Open Source CFD Toolbox           |
|  \\    /   O peration     | Version:  v1806                                 |
|   \\  /    A nd           | Web:      www.OpenFOAM.com                      |
|    \\/     M anipulation  |                                                 |
\*---------------------------------------------------------------------------*/
FoamFile
{
    version     2.0;
    format      ascii;
    class       surfaceScalarField;
    location    "800";
    object      phia;
}
// * * * * * * * * * * * * * * * * * * * * * * * * * * * * * * * * * * * * * //

dimensions      [0 3 -1 0 0 0 0];
oriented        oriented;


internalField   nonuniform List<scalar> 
12640
(
-0.00153643795917
0.00153651059494
-0.00288340911444
0.00134705273469
-0.00421750744907
0.00133419064358
-0.00601433058868
0.00179691253468
-0.00732128904321
0.0013070671596
-0.00884049110607
0.00151931988912
-0.00994545735684
0.00110505391324
-0.0107893082465
0.000843928439891
-0.0114628091169
0.000673573732075
-0.012012220746
0.000549481564385
-0.0124651348444
0.000452980854475
-0.0128403810383
0.000375311605285
-0.0131520699073
0.000311752655905
-0.0134112788381
0.000259273029837
-0.0136268589186
0.000215644130938
-0.013805940421
0.000179147165286
-0.013954312042
0.00014843842917
-0.0140766935384
0.00012245080153
-0.0141769405695
0.000100318319989
-0.014258197193
8.13309844944e-05
-0.0143230266864
6.49064181676e-05
-0.0143735166982
5.0570368092e-05
-0.0144113726554
3.79392699642e-05
-0.0144379907508
2.67050420599e-05
-0.0144545226233
1.66220259715e-05
-0.014461924669
7.49592306958e-06
-0.0144610023433
-8.25088186267e-07
-0.0144524448772
-8.45648378099e-06
-0.0144368554499
-1.54849858485e-05
-0.0144147915492
-2.19557588975e-05
-0.0143868062545
-2.78736362045e-05
-0.0143537071299
-3.29838343192e-05
-0.0143168080993
-3.67800920804e-05
-0.0142786126903
-3.80728573802e-05
-0.0142351482835
-4.333837484e-05
-0.014150577935
-8.44413575273e-05
-0.0140328006173
-0.000117645409801
-0.0138876134681
-0.000145053080595
-0.0137274326986
-0.000160044519578
-0.0135575835296
-0.000169711594509
-0.0133816860924
-0.000175758467237
-0.0132019716498
-0.000179575108706
-0.0130199151229
-0.00018191674577
-0.0128365742355
-0.000183201788418
-0.012652787686
-0.000183648016003
-0.0124692962861
-0.000183354590863
-0.0122868034107
-0.000182357625273
-0.0121060119219
-0.000180658926657
-0.0119276468872
-0.000178234932769
-0.0117524788986
-0.000175041398604
-0.0115813394521
-0.000171016067089
-0.0114151366268
-0.000166083598129
-0.0112548604536
-0.00016016071572
-0.0111015845143
-0.000153165067832
-0.0109564520613
-0.000145025701663
-0.0108206524015
-0.000135697721034
-0.0106953768887
-0.000125177840893
-0.0105817617344
-0.000113522332332
-0.0104808102694
-0.000100862874734
-0.0103933051642
-8.74212407535e-05
-0.0103197075127
-7.35178299866e-05
-0.0102600565723
-5.95755867612e-05
-0.0102138694655
-4.6115484353e-05
-0.0101800550546
-3.37468947739e-05
-0.010156838133
-2.31527511273e-05
-0.010141705834
-1.50718203166e-05
-0.0101313592534
-1.02890583645e-05
-0.0101216935797
-9.61142946939e-06
-0.0101077371416
-1.39047521225e-05
-0.0100837236672
-2.39644612197e-05
-0.0100428555788
-4.08211008947e-05
-0.00997808880374
-6.47213036587e-05
-0.00988066497029
-9.73800689236e-05
-0.00974643432109
-0.000134186435601
-0.00956094078479
-0.000185452505904
-0.00934117148407
-0.000219726410615
-0.00897521456761
-0.0003659171863
-0.00851987557784
-0.000455306179966
-0.00595165274362
-0.00256811526632
-0.00595161594619
-0.00136160879684
0.0028982504109
-0.00341141435475
0.00339698714326
-0.00523694872931
0.00315982389517
-0.00703895744496
0.0035989937761
-0.00895112345748
0.00321928617246
-0.0102079279329
0.00277616337103
-0.0115160393756
0.00241320342955
-0.0127971801662
0.00212510520284
-0.0140192940082
0.0018957250842
-0.0151716886061
0.00170191237297
-0.016248702705
0.00153003157602
-0.0172479594966
0.00137460382412
-0.0181699360196
0.00123376477925
-0.0190172160732
0.00110658827952
-0.0197936531116
0.000992116907934
-0.0205037060862
0.00088923640318
-0.0211520047814
0.00079677440105
-0.021743093215
0.000713577847797
-0.0222812841544
0.000638549297778
-0.022770580883
0.000570669741867
-0.023214645099
0.000509014416269
-0.0236167903853
0.000452761940837
-0.0239799954416
0.000401192613504
-0.0243069222037
0.000353682989868
-0.0245999420717
0.000309695257304
-0.0248611582009
0.000268768612668
-0.0250924334335
0.000230509012482
-0.0252954094877
0.000194581866897
-0.0254715400043
0.000160710236055
-0.0256220918651
0.000128664373718
-0.0257481887687
9.82939893922e-05
-0.0258505420595
6.94438137438e-05
-0.0259296917498
4.24464987146e-05
-0.0259870304432
1.93461941872e-05
-0.0260457185643
1.5432375235e-05
-0.0261460393259
1.59648880941e-05
-0.0262336866734
-2.99111293799e-05
-0.026289490719
-8.91601184343e-05
-0.0263085144901
-0.000140930895653
-0.0262873533972
-0.000190781595779
-0.0262233423694
-0.000239678043144
-0.0261151274603
-0.000287698169625
-0.0259615987536
-0.000335353901648
-0.0257615599118
-0.000383149552413
-0.025513725241
-0.000431392569717
-0.0252167615365
-0.000480229465705
-0.0248693228576
-0.000529709048943
-0.0244700848735
-0.000579811640975
-0.024017785187
-0.000630451446662
-0.0235112749243
-0.000681471012313
-0.0229495809633
-0.000732631880071
-0.0223319838351
-0.000783605458485
-0.0216581106425
-0.000833961412732
-0.0209280475448
-0.000883158725559
-0.0201424681946
-0.000930538523237
-0.0193027774351
-0.000975325022261
-0.0184112604576
-0.001016634291
-0.0174712285148
-0.00105349670653
-0.0164871444724
-0.00108489219771
-0.0154647122492
-0.00110980150138
-0.0144109110869
-0.00112726971249
-0.0133339593413
-0.00113648054556
-0.0122431966555
-0.00113683382678
-0.0111488812538
-0.00112802014158
-0.0100619093358
-0.00111008467266
-0.00899347146713
-0.00108347157136
-0.00795467043395
-0.00104905386208
-0.00695612504298
-0.00100812217184
-0.00600759175018
-0.000962405000204
-0.00511759556366
-0.000913928769347
-0.00429312053821
-0.000865265238354
-0.0035393016007
-0.000818510030651
-0.0028591492731
-0.000777502091961
-0.00225332064503
-0.000739985763829
-0.00171876305271
-0.000719979344169
-0.00125174361191
-0.000686719422683
-0.000823637552147
-0.000793994533128
-0.000436872527197
-0.000842035278008
0.000293735917127
-0.00329870103757
-0.00565784417327
-0.00484500414676
0.00774331092674
-0.00594775936913
0.00449982883524
-0.00618331264293
0.00339542824494
-0.00618185639008
0.00359757583884
-0.00640590421845
0.00344336341931
-0.00686089105856
0.00323117444169
-0.00751493050679
0.00306726318079
-0.00827116429755
0.00288135818123
-0.00903930093466
0.00266387994593
-0.00976968581684
0.00243231510814
-0.0104401830421
0.00220054569726
-0.0110424344875
0.00197687132626
-0.0115752124895
0.00176655781306
-0.0120411749957
0.00157256489717
-0.0124449210608
0.00139587633964
-0.012791787677
0.00123611567
-0.0130871665216
0.00109216556393
-0.0133361547629
0.000962577987102
-0.0135433952394
0.00084580175906
-0.0137130208542
0.000740307223862
-0.0138486528495
0.00064465874741
-0.0139534296508
0.00055755123976
-0.014030048358
0.000477824618852
-0.0140808133984
0.000404461734607
-0.0141076840847
0.000336580729843
-0.0141123218754
0.000273421806322
-0.0140961329293
0.000214336792748
-0.0140603070949
0.000158773557542
-0.0140058553143
0.000106277487997
-0.0139336330613
5.6462063164e-05
-0.0138444192284
9.10167929388e-06
-0.0137388743243
-3.60786030894e-05
-0.0136174130837
-7.89906831426e-05
-0.0134749554362
-0.000123086432863
-0.0132815554292
-0.000177941564088
-0.0130730282644
-0.000192535938576
-0.0128843260566
-0.000218586524245
-0.0127187661596
-0.000254693260182
-0.0125732860823
-0.000286384106253
-0.0124490715505
-0.000314969519494
-0.012346351254
-0.000342371998019
-0.012265038463
-0.000368985089418
-0.0122053244969
-0.000395042620502
-0.0121674909885
-0.000420958453481
-0.0121516579544
-0.000447201905385
-0.0121576318183
-0.000474232646009
-0.0121848069098
-0.000502512097663
-0.0122320793841
-0.000532518080895
-0.0122977664339
-0.000564744491234
-0.0123795288595
-0.000599689423162
-0.0124743020836
-0.000637840664239
-0.0125782346402
-0.000679655575242
-0.0126866419511
-0.000725537868425
-0.0127939782639
-0.000775806743716
-0.0128938395614
-0.000830662528051
-0.0129790043761
-0.000890145969376
-0.0130415278763
-0.000954097384808
-0.0130728959301
-0.00102211560945
-0.0130642499228
-0.00109352585392
-0.0130066797768
-0.00116735956968
-0.0128915809092
-0.00124235705487
-0.0127110541297
-0.00131699597241
-0.0124583235059
-0.0013895534943
-0.0121281336308
-0.00145819909549
-0.0117170894962
-0.0015211181002
-0.0112238997018
-0.00157665053073
-0.0106494971221
-0.001623445628
-0.00999702519138
-0.00166058299398
-0.00927167320251
-0.00168774566712
-0.00848040785972
-0.00170518216312
-0.00763150581183
-0.00171415470957
-0.00673403804447
-0.00171596396483
-0.00579649763315
-0.00171502809886
-0.00482632706408
-0.00171013968932
-0.00382588359049
-0.00172040744709
-0.00280292519045
-0.00170966001124
-0.00175864420246
-0.00183826114837
-0.000811215331846
-0.00178945814889
4.56756930213e-05
-0.00415555181977
-0.00561217233537
-0.00626997173388
0.0140134276254
-0.00456388109551
0.00279379786888
-0.00398398087649
0.00281556202239
-0.00425677686557
0.00387039760612
-0.00499597960804
0.0041825861552
-0.00597350028851
0.00420870966662
-0.0070087682331
0.00410254233735
-0.00800553117458
0.00387813013554
-0.00892279577769
0.00358115224052
-0.00975030840794
0.00325983407015
-0.010492040138
0.0029422823144
-0.0111570898108
0.00264192427582
-0.0117555227697
0.00236499220954
-0.0122966930192
0.00211373482397
-0.0127886786356
0.00188785964232
-0.0132381942646
0.00168562728433
-0.0136507021913
0.0015046675229
-0.0140305951004
0.00134246340549
-0.0143813936105
0.00119659096493
-0.0147059258752
0.00106482889126
-0.0150064810661
0.000945201715381
-0.0152849321821
0.000835989084706
-0.0155428354715
0.000735713216601
-0.0157815070075
0.000643117771094
-0.0160020842068
0.000557141213542
-0.0162055724179
0.000476892721073
-0.0163928803474
0.000401626405832
-0.016564850517
0.000330725025588
-0.0167222617745
0.000263669174705
-0.0168658686157
0.000200049040156
-0.0169962365681
0.000139448950207
-0.0171139988766
8.16627697068e-05
-0.0172191347225
2.61234854008e-05
-0.0173171367608
-2.51066727167e-05
-0.0174180695694
-7.70320736272e-05
-0.017465329062
-0.000145300596741
-0.0174728906847
-0.000211050178144
-0.0174454633097
-0.000282146816828
-0.0173786348489
-0.000353239746089
-0.0172720613025
-0.00042157114501
-0.0171268641266
-0.000487598056829
-0.0169440737495
-0.000551805169521
-0.0167248691374
-0.000614277464368
-0.0164708025806
-0.000675055882636
-0.0161838098312
-0.000734225702853
-0.0158662025853
-0.000791871309223
-0.0155206893186
-0.000848056552949
-0.0151504009831
-0.000902837639245
-0.0147588978262
-0.00095627822589
-0.014350155594
-0.00100846190943
-0.0139285240946
-0.00105950138766
-0.0134986581955
-0.00110955003757
-0.0130654110394
-0.00115881224289
-0.0126336889385
-0.00120755512387
-0.012208259905
-0.00125611627706
-0.0117935207652
-0.00130490868959
-0.0113932242019
-0.00135441584958
-0.0110101836173
-0.00140517685103
-0.0106459733214
-0.00145775510294
-0.010300657867
-0.0015126926928
-0.00997258166889
-0.00157044924451
-0.0096582583951
-0.00163133393817
-0.00935238720107
-0.00169543772317
-0.00904801811992
-0.00176257986951
-0.00873686572624
-0.00183228049993
-0.00840975965567
-0.00190376518035
-0.00805719605579
-0.00197601605262
-0.00766995921254
-0.00204782511889
-0.00723975985096
-0.00211794842978
-0.00675989159265
-0.0021850520502
-0.00622579268631
-0.00224825301282
-0.00563568265785
-0.00230607150429
-0.00499037054679
-0.00236033512463
-0.00429404330716
-0.00240646114547
-0.00355009480927
-0.00246434725907
-0.00277047028102
-0.00248927811017
-0.00195225212555
-0.00265647176178
-0.00117961776747
-0.00256207619404
-0.000315771789921
-0.00501940942355
-0.00592793608392
-0.00146925454642
0.0154826913177
-0.00099187897047
0.00231644495569
-0.00224271755118
0.00406642247479
-0.00368086251629
0.00530856102989
-0.00500521566565
0.00550695388293
-0.00619878900147
0.00540229413736
-0.00722575830908
0.00512951990094
-0.00808944734946
0.00474182545705
-0.00881883707939
0.00431054664438
-0.00944317810875
0.003884178383
-0.00998561921644
0.00348472523455
-0.0104637842952
0.00312008952974
-0.010890622216
0.00279182857472
-0.01127522719
0.00249833626475
-0.0116237975301
0.00223642451217
-0.011940511805
0.00200233389884
-0.0122281866203
0.00179233266224
-0.0124887359332
0.0016030007716
-0.0127234865754
0.00143132766722
-0.0129333931868
0.00127471930517
-0.0131191782718
0.00113096869565
-0.0132814212811
0.000998211803327
-0.013420611571
0.00087488142925
-0.0135371801982
0.00075966223859
-0.013631516472
0.000651451677787
-0.0137039768006
0.000549325276362
-0.0137548876751
0.00045250798777
-0.0137845431221
0.000360349319142
-0.0137932056656
0.000272299110952
-0.0137810836764
0.000187892611606
-0.0137483690937
0.000106698472246
-0.0136950692806
2.83252603779e-05
-0.013620967958
-4.80170353554e-05
-0.0135226643476
-0.000123451335924
-0.0134111267079
-0.000188612590574
-0.013307922269
-0.000248549572535
-0.0132109984359
-0.000308020002735
-0.0131257240137
-0.0003674686354
-0.0130516403112
-0.000427372077582
-0.0129866198919
-0.000486641210739
-0.0129290122624
-0.000545256240627
-0.012877093916
-0.000603774613773
-0.0128287772135
-0.000662645751847
-0.0127816747639
-0.00072220991867
-0.0127331498573
-0.000782802191106
-0.0126803247365
-0.000844747441524
-0.0126201084263
-0.000908323348746
-0.0125492568126
-0.00097373861203
-0.0124644605707
-0.0010411227962
-0.0123624539745
-0.00111051521001
-0.0122401458254
-0.00118185476534
-0.0120947667993
-0.00125497226636
-0.0119240295642
-0.0013295908546
-0.0117262887129
-0.00140533504521
-0.0115006888633
-0.0014817531357
-0.0112472797124
-0.00155835239433
-0.0109670788902
-0.00163464905113
-0.0106620575768
-0.00171022806665
-0.0103350317109
-0.00178480869398
-0.0099894452172
-0.00185830451335
-0.00962904876806
-0.00193086891453
-0.00925749053637
-0.00200291311897
-0.00887785654199
-0.00207509064651
-0.00849220935053
-0.00214824382518
-0.00810118564305
-0.0022233190069
-0.00770371011553
-0.00230125341408
-0.00729687248838
-0.00238286445894
-0.00687601340988
-0.00246869294254
-0.00643502813361
-0.00255894052989
-0.00596694048406
-0.00265314440163
-0.0054647205843
-0.00275047560902
-0.00492265056378
-0.00284814194118
-0.00433753238628
-0.00294545232946
-0.00371158265674
-0.00303240759692
-0.0030505364585
-0.00312539081944
-0.00237297930787
-0.0031668301777
-0.00167825604536
-0.00335119187417
-0.00103908297722
-0.00320125705088
-0.000248354643777
-0.00581012504473
-0.00617630031527
5.41191836249e-05
0.0154286401719
-0.000445869282932
0.00281645902056
-0.00254746169348
0.00616803117285
-0.00425884661092
0.0070199592865
-0.00557487810119
0.00682299640185
-0.00661508625603
0.00644251107656
-0.00742719285674
0.00594163346114
-0.00807024994722
0.00538488798883
-0.00860162279122
0.0048419237405
-0.00906117514592
0.00434373384222
-0.00947370936507
0.00389726138093
-0.00985448370316
0.0035008644977
-0.0102125398555
0.0031498838571
-0.0105527601171
0.00283855405439
-0.0108774117027
0.00256107177663
-0.0111872563779
0.00231217238953
-0.011482261057
0.00208732904863
-0.0117620220008
0.0018827513943
-0.0120260123223
0.00169530540414
-0.0122737206085
0.00152241289955
-0.0125047229094
0.00136195396804
-0.0127187130538
0.00121218279479
-0.0129155109614
0.00107165783039
-0.0130950587536
0.000939186422014
-0.0132574133992
0.000813780380038
-0.0134027373632
0.00069462123464
-0.0135312917524
0.000581032066582
-0.0136434280144
0.000472453223493
-0.0137395879214
0.000368424350124
-0.0138202872707
0.000268555204665
-0.0138861636733
0.000172535796321
-0.0139379307594
8.00512399943e-05
-0.0139770831756
-8.90802295753e-06
-0.0140058774046
-9.47027756093e-05
-0.0140101519215
-0.000184385848124
-0.0139856617009
-0.000273089238189
-0.0139331325761
-0.000360600109657
-0.013853175316
-0.00044747821426
-0.0137474281998
-0.00053317257327
-0.0136173153173
-0.000616808361377
-0.0134646833447
-0.000697942986704
-0.0132918621649
-0.000776650928873
-0.013101403897
-0.000853159056656
-0.0128959545847
-0.000927714058304
-0.0126781866994
-0.00100062419558
-0.0124507049988
-0.00107228248117
-0.0122159325629
-0.00114314784292
-0.0119760011336
-0.00121372079106
-0.0117326511844
-0.00128452171317
-0.0114871468375
-0.00135606676277
-0.0112402100854
-0.00142883653788
-0.0109919846032
-0.00150324065304
-0.0107420356057
-0.00157958028376
-0.0104893946596
-0.00165801406789
-0.0102326522318
-0.00173853100617
-0.00997009997446
-0.00182093762255
-0.00969991467033
-0.00190486466085
-0.00942037054187
-0.00198980003534
-0.00913005355101
-0.00207515095105
-0.008828046254
-0.00216033472227
-0.00851404423102
-0.00224489145131
-0.00818837010242
-0.00232860557491
-0.00785185970701
-0.00241161716781
-0.00750561445482
-0.00249450318555
-0.00715063776069
-0.00257830778121
-0.00678739984346
-0.00266450153559
-0.00641538310594
-0.00275488957614
-0.00603271268272
-0.00285136998543
-0.00563591202902
-0.00295574620373
-0.00521991379909
-0.00306914594244
-0.00477837905118
-0.00319201209803
-0.00430470382178
-0.00332181743891
-0.00379315302468
-0.00345700205128
-0.00324218838602
-0.00358337115498
-0.00265374461643
-0.00371383227279
-0.00204501016911
-0.00377556400886
-0.00141728467779
-0.00397891650362
-0.000862552889847
-0.00375598255846
-0.000151225809177
-0.00652146921949
-0.00632752785905
0.000363225160297
0.0150653891887
-0.000963908233756
0.00414359242936
-0.00334673750495
0.0085508673556
-0.00487937227135
0.00855260215409
-0.00593262338097
0.00787625545537
-0.00669598031793
0.00720587530805
-0.00725542741962
0.00650108693797
-0.007692735501
0.00582220162103
-0.00806672839834
0.00521592133874
-0.00841041497061
0.00468742435577
-0.0087406634146
0.00422751292201
-0.0090653632804
0.00382556654929
-0.00938717733959
0.00347169904501
-0.00970576595181
0.00315714257071
-0.0100192511909
0.00287455556611
-0.0103251308333
0.00261804903541
-0.0106207963336
0.00238298993954
-0.0109038015206
0.00216575017434
-0.0111719865207
0.00196348220207
-0.0114235204756
0.00177393668697
-0.0116568988679
0.00159532028587
-0.0118709182188
0.00142618800532
-0.0120646408343
0.00126536433959
-0.0122373583746
0.0011118857397
-0.0123885573301
0.000964959123553
-0.012517889231
0.000823930786478
-0.0126251445409
0.000688263018144
-0.0127102326945
0.000557514851497
-0.01277316215
0.000431325214217
-0.0128140377277
0.000309399980082
-0.0128330216812
0.000191486885079
-0.012830390766
7.73852894984e-05
-0.0128061799026
-3.31559515622e-05
-0.0127609572596
-0.000139964619657
-0.0127045808541
-0.000240803223094
-0.012639562397
-0.000338150038775
-0.0125670964514
-0.000433109595308
-0.0124883175646
-0.000526301576025
-0.0124033716658
-0.000618163700602
-0.0123115559779
-0.000708669702233
-0.0122117634231
-0.000797781447069
-0.0121027961466
-0.000885663993541
-0.0119834314624
-0.000972569255451
-0.011852466909
-0.00105872347325
-0.0117088087388
-0.00114432644291
-0.0115515559928
-0.00122957815786
-0.0113800593905
-0.00131468612868
-0.0111939579813
-0.00139986231067
-0.0109931962716
-0.00148532189265
-0.0107780177439
-0.00157128184238
-0.0105489334815
-0.00165795540211
-0.0103066662862
-0.00174554028119
-0.0100520754266
-0.00183420141327
-0.00978606857616
-0.00192404887226
-0.00950951213833
-0.00201511312789
-0.0092231526518
-0.00210732044136
-0.00892756459957
-0.0022004737828
-0.00862313832229
-0.00229424511247
-0.00831011593535
-0.00238818999367
-0.00798867443568
-0.0024817907811
-0.00765904097561
-0.00257453751974
-0.00732161155744
-0.00266604572035
-0.00697703512487
-0.00275620258221
-0.00662621788207
-0.0028453277316
-0.00627021617896
-0.00293431519273
-0.00591000795537
-0.00302471403872
-0.00554613220529
-0.00311876813004
-0.00517830494653
-0.00321919901972
-0.00480501588584
-0.00332903570367
-0.00442327519063
-0.00345088629419
-0.00402854107739
-0.0035867447206
-0.00361528797019
-0.0037350685879
-0.00317764784073
-0.00389463990646
-0.00271217226212
-0.00404884460363
-0.00221705647053
-0.00420894729367
-0.00170507199802
-0.00428754733764
-0.00117429749052
-0.00450969054442
-0.000730496137656
-0.00419979353268
-0.00010718058346
-0.00714478547666
-0.00643471643417
0.000356098198208
0.0147093104195
-0.00154809823465
0.0060477936957
-0.00388811829816
0.0108908905491
-0.00509479970142
0.00975928804293
-0.00586771938513
0.00864918056315
-0.0063987788135
0.00773694053317
-0.00678453444452
0.00688684842137
-0.00710593625183
0.00614360898743
-0.00740853697174
0.0055185272846
-0.00771258954853
0.00499148168207
-0.00802577490957
0.00454070256205
-0.00834935067372
0.00414914598835
-0.00868112115608
0.00380347252246
-0.00901725237774
0.00349327594705
-0.00935338368992
0.00321068805872
-0.00968524030089
0.00294990571096
-0.0100089363284
0.00270668477408
-0.0103211009001
0.00247791220232
-0.0106189057731
0.0022612830531
-0.0109000404804
0.00205506585045
-0.0111626628695
0.00185793549882
-0.0114053410603
0.00166885738416
-0.01162699633
0.0014870090674
-0.0118268513251
0.00131172848887
-0.0120043861375
0.00114247990629
-0.0121593019599
0.000978830833716
-0.012291493242
0.000820436704809
-0.012401024871
0.000667027089599
-0.0124881208091
0.000518399898588
-0.0125531463751
0.000374402463385
-0.0125966323379
0.000234947935596
-0.0126192196465
9.99459921893e-05
-0.0126218042645
-3.05997358573e-05
-0.0126045846407
-0.000157214336015
-0.0125642749065
-0.000281144257161
-0.0125011933052
-0.000401263894011
-0.0124162312137
-0.00051810465717
-0.0123107560471
-0.000631810271459
-0.0121865402333
-0.000742413328461
-0.0120453681532
-0.000849875724254
-0.0118889896283
-0.000954193754926
-0.0117191560108
-0.00105553108344
-0.0115375508361
-0.00115420731374
-0.0113456790498
-0.00125062741648
-0.0111447892845
-0.00134524738794
-0.0109358317912
-0.00143856573494
-0.01071943897
-0.00153110772485
-0.0104959294267
-0.00162339922128
-0.0102653383433
-0.00171593876545
-0.0100274721077
-0.00180917221189
-0.00978198018598
-0.0019034696796
-0.00952843569753
-0.00199910529577
-0.00926641472369
-0.00209624101387
-0.00899556419699
-0.00219491610738
-0.00871564954007
-0.00229504256231
-0.00842657669117
-0.00239640616024
-0.00812838813676
-0.00249867334636
-0.00782124223556
-0.00260140023318
-0.00750538587413
-0.00270405387431
-0.0071811401929
-0.00280604238797
-0.00684891081995
-0.00290677132656
-0.00650922793214
-0.00300573162913
-0.00616280941578
-0.00310262286873
-0.0058106113329
-0.003197526264
-0.00545383092755
-0.00329109503483
-0.00509383716392
-0.00338470601441
-0.00473193182756
-0.00348067092148
-0.0043690985045
-0.00358202888304
-0.00400559911163
-0.00369253124529
-0.00364073482694
-0.00381574620181
-0.00327259270358
-0.00395488225938
-0.0028984281806
-0.00410922840131
-0.0025151683916
-0.00427789574999
-0.00212134368871
-0.00444266668039
-0.00171571317657
-0.00461457688907
-0.00130970857708
-0.00469355220747
-0.000896802718708
-0.00492259835367
-0.000586759123312
-0.0045098364936
-6.62188027311e-05
-0.00766533960508
-0.00650094248651
0.000266297284688
0.014442980843
-0.00209381350874
0.00840789272537
-0.00416838600938
0.0129654600424
-0.0050018368069
0.0105927395333
-0.00554135039603
0.00918869723776
-0.00591222075105
0.00810781540648
-0.00620163847968
0.00717627127717
-0.00647485865187
0.00641683448378
-0.00675951856625
0.00580319234948
-0.00706419666958
0.0052961647021
-0.00738957613811
0.00486608657489
-0.00773238228881
0.00449195630378
-0.00808739155443
0.0041584854399
-0.00844876143061
0.0038546488914
-0.00881079441055
0.00357272337085
-0.00916830725455
0.00330742004755
-0.00951678013098
0.00305515817228
-0.00985238753228
0.0028135190563
-0.0101719652497
0.00258085906171
-0.0104729457432
0.00235604339328
-0.0107532823348
0.00213826784204
-0.0110113740293
0.00192694347265
-0.0112459969593
0.00172162500699
-0.0114562451195
0.00152196823678
-0.0116414809024
0.001327705847
-0.0118012949413
0.00113863358066
-0.0119354744399
0.00095460345253
-0.0120439781262
0.000775516555692
-0.0121269192032
0.000601325272087
-0.012184548133
0.000432014243949
-0.0122172520545
0.000267633317532
-0.0122255203844
0.000108194455197
-0.0122100897311
-4.60515421468e-05
-0.0121723863542
-0.000194940031382
-0.0121150724552
-0.000338481186569
-0.0120388572733
-0.000477502572411
-0.0119447627018
-0.000612223070091
-0.0118336165516
-0.000742980383152
-0.0117060825607
-0.000869971278238
-0.0115627067742
-0.000993275245553
-0.0114039810821
-0.00111294283701
-0.0112304488656
-0.00122908613796
-0.0110427674559
-0.00134191089533
-0.0108417136199
-0.00145170257731
-0.0106281651125
-0.00155881626928
-0.0104030701036
-0.0016636800188
-0.0101674016354
-0.0017667942754
-0.00992209990631
-0.00186871772703
-0.00966801263166
-0.00197004142786
-0.00940584423306
-0.00207135453525
-0.00913612259569
-0.00217320371195
-0.00885918945416
-0.00227604927241
-0.00857521703965
-0.00238022266279
-0.00828424831536
-0.00248589248228
-0.00798625375436
-0.0025930431893
-0.00768119398129
-0.00270147047623
-0.00736907289703
-0.00281079750357
-0.00704997916857
-0.0029204956592
-0.00672410046191
-0.00302993298948
-0.00639172532351
-0.00313841675106
-0.00605323671446
-0.00324525799583
-0.00570911427396
-0.00334985119653
-0.00535996752827
-0.00345176559441
-0.00500658144064
-0.00355090756129
-0.00464995755119
-0.00364771300958
-0.00429136510085
-0.00374329181153
-0.00393217116019
-0.00383985751452
-0.00357380927635
-0.00394038307244
-0.00321743988407
-0.00404889291889
-0.00286403630125
-0.004169141787
-0.00251385045854
-0.00430506058342
-0.00216711987528
-0.00445595222171
-0.00182491456582
-0.00462009579302
-0.00149034419376
-0.0047772346104
-0.00116581922474
-0.00493910134977
-0.000862563294374
-0.00499681039967
-0.000577184557474
-0.00520797798115
-0.000402245411399
-0.00468478454918
9.74083165794e-06
-0.00807733698433
-0.00649120743709
0.000137516024633
0.0143054657114
-0.00251078100487
0.0110561841823
-0.00417855292023
0.0146332269405
-0.00468378698276
0.0110979720308
-0.00507362917319
0.00957854062598
-0.00535774837571
0.00839193775117
-0.00561138082784
0.00742990805215
-0.00588009504793
0.00668555344676
-0.00617651920959
0.0060996213445
-0.00650165316391
0.00562130328445
-0.00685200045428
0.00521643826476
-0.00722168217146
0.00486164206801
-0.00760386988361
0.00454067684352
-0.00799176740438
0.00424254961299
-0.00837912340651
0.00396008203208
-0.00876044314001
0.00368874175391
-0.00913104241857
0.00342575867297
-0.00948701987666
0.00316949686329
-0.00982518738003
0.00291902598861
-0.0101429832348
0.00267383765449
-0.0104383834593
0.00243366542409
-0.0107098197365
0.00219837599479
-0.0109561076359
0.00196790803163
-0.0111763864024
0.00174224096832
-0.0113700695986
0.00152138186732
-0.0115368057959
0.001305361432
-0.0116764477009
0.0010942358792
-0.0117890282745
0.00088808648658
-0.0118747444589
0.000687029714855
-0.0119339422575
0.000491199198033
-0.0119671241929
0.000300801450004
-0.0119749306815
0.000115986223879
-0.0119582053721
-6.27924328492e-05
-0.0119169687711
-0.000236192907434
-0.0118514141141
-0.00040405234837
-0.0117625021925
-0.000566431140527
-0.0116513346157
-0.000723407248795
-0.011519283221
-0.000875048246348
-0.0113678343373
-0.00102143632691
-0.0111984768794
-0.00116264847631
-0.0110126446189
-0.00129879032784
-0.0108117012027
-0.00143004415337
-0.0105969348488
-0.00155669109026
-0.0103695461597
-0.00167910426293
-0.0101306383925
-0.00179773608856
-0.0098812169427
-0.00191311249167
-0.00962219301549
-0.00202582812523
-0.00935438491518
-0.00213653456746
-0.00907851460759
-0.00224591925327
-0.00879520028822
-0.00235467507807
-0.00850494776142
-0.00246346116583
-0.00820814447009
-0.00257285614384
-0.0079050626755
-0.00268330672677
-0.00759587401927
-0.00279508208464
-0.00728067874686
-0.00290823815123
-0.00695954918197
-0.00302259851695
-0.00663257045699
-0.00313777357988
-0.00629989551399
-0.0032531668792
-0.0059617701102
-0.00336805374857
-0.00561855331509
-0.00348162788418
-0.00527071236869
-0.00359309252066
-0.0049188067893
-0.00370174936646
-0.00456350005344
-0.00380706410641
-0.00420557096116
-0.00390882757351
-0.00384593220754
-0.00400734172015
-0.00348581456048
-0.0041033986806
-0.00312653347569
-0.0041991273148
-0.00276963364917
-0.00429727195367
-0.00241659538663
-0.00440192056444
-0.00206997578617
-0.00451575183035
-0.00173153981817
-0.00464348784205
-0.00140467413853
-0.00478281068956
-0.00109613517541
-0.00492863026967
-0.000814112898021
-0.00505925432557
-0.000569059715945
-0.00518415676016
-0.000361481643365
-0.00520438985857
-0.000238332497475
-0.00533113226112
-0.000162372809499
-0.00476074970608
0.000192196383813
-0.00843191550641
-0.00629902297009
5.70710631694e-06
0.0142997286694
-0.00278475878365
0.0138466338793
-0.00398809470998
0.0158365546308
-0.00425875393826
0.0113686272388
-0.00457543736718
0.00989522359203
-0.00482154450584
0.00863804689351
-0.00507216591822
0.00768053284108
-0.00535485227469
0.00696824382356
-0.00567255677618
0.0064173299069
-0.00602225379927
0.00597100423517
-0.00639803642956
0.00559222451202
-0.0067924955186
0.00525610449471
-0.00719794091493
0.00494612519449
-0.00760714419147
0.00465175546359
-0.00801367571096
0.00436661561241
-0.00841200982801
0.00408707738325
-0.00879751307845
0.00381126275423
-0.0091663737191
0.00353835761749
-0.00951550634899
0.00326815790533
-0.00984245031406
0.00300078006022
-0.0101452739964
0.00273648661843
-0.0104224898826
0.00247558846807
-0.0106729826145
0.00221839636836
-0.0108959495098
0.001965202519
-0.0110908523492
0.00171627837612
-0.0112573790491
0.00147188087581
-0.0113954130076
0.00123226162691
-0.011505009902
0.000997674297246
-0.0115863788359
0.000768388674337
-0.0116398675404
0.000544677179571
-0.0116659516704
0.000326874130198
-0.0116651995371
0.000115222091321
-0.0116383139711