/*--------------------------------*- C++ -*----------------------------------*\
| =========                 |                                                 |
| \\      /  F ield         | OpenFOAM: The Open Source CFD Toolbox           |
|  \\    /   O peration     | Version:  v1806                                 |
|   \\  /    A nd           | Web:      www.OpenFOAM.com                      |
|    \\/     M anipulation  |                                                 |
\*---------------------------------------------------------------------------*/
FoamFile
{
    version     2.0;
    format      ascii;
    class       volVectorField;
    location    "800";
    object      U;
}
// * * * * * * * * * * * * * * * * * * * * * * * * * * * * * * * * * * * * * //

dimensions      [0 1 -1 0 0 0 0];


internalField   nonuniform List<vector> 
6400
(
(0.00599155168935 0.00782872154623 0)
(0.0137550846879 0.00507241046688 0)
(0.0182075615833 0.00422311876067 0)
(0.0173603788581 0.00419127260007 0)
(0.013077647379 -0.00152836362535 0)
(-0.0144595026986 -0.0139899257251 0)
(-0.0383065018824 -0.0145150077236 0)
(-0.0623137408786 -0.0144166172141 0)
(-0.0866724951356 -0.0140865497408 0)
(-0.110721766551 -0.013585652873 0)
(-0.13408906491 -0.0129622674795 0)
(-0.15651326307 -0.0122606031295 0)
(-0.177819262321 -0.0115162797263 0)
(-0.197899382473 -0.0107568199785 0)
(-0.216698604564 -0.0100026962855 0)
(-0.234202001899 -0.00926847353114 0)
(-0.25042409843 -0.00856390842646 0)
(-0.265400055885 -0.00789495751155 0)
(-0.279178582105 -0.00726466822854 0)
(-0.291816401582 -0.00667393905281 0)
(-0.30337408728 -0.0061221462352 0)
(-0.313913033743 -0.00560764325716 0)
(-0.323493353282 -0.00512814597485 0)
(-0.332172494423 -0.00468101956616 0)
(-0.340004407921 -0.00426348461651 0)
(-0.347039114149 -0.00387275855447 0)
(-0.353322556014 -0.00350614666974 0)
(-0.358896644139 -0.00316109419177 0)
(-0.363799422112 -0.00283520773625 0)
(-0.368065294764 -0.00252625159493 0)
(-0.371725284642 -0.00223212351755 0)
(-0.374807308168 -0.00195081583705 0)
(-0.377336428654 -0.00168034042118 0)
(-0.379334931839 -0.00141851468493 0)
(-0.380821937916 -0.00116253213587 0)
(-0.38181261411 -0.000908738219431 0)
(-0.382318212187 -0.000653539383333 0)
(-0.382350429335 -0.000395568615311 0)
(-0.381914390634 -0.000136887719973 0)
(-0.381013523267 0.000118054229414 0)
(-0.37966185552 0.000366709317198 0)
(-0.377871484822 0.000609049473692 0)
(-0.375653719009 0.000845760678197 0)
(-0.373018366294 0.0010777659932 0)
(-0.369973579975 0.00130605387063 0)
(-0.366525825205 0.00153161576222 0)
(-0.362679903138 0.0017554179377 0)
(-0.358439011809 0.00197838071287 0)
(-0.353804844663 0.00220135690632 0)
(-0.348777734365 0.00242510606221 0)
(-0.343356850667 0.0026502655627 0)
(-0.337540458898 0.00287731951946 0)
(-0.331326241324 0.00310656930967 0)
(-0.324711677404 0.00333810861601 0)
(-0.31769447142 0.0035718084122 0)
(-0.310273007453 0.00380731576016 0)
(-0.302446802894 0.00404407234356 0)
(-0.294216923045 0.00428135645473 0)
(-0.285586311671 0.00451835364524 0)
(-0.276559986257 0.00475425834481 0)
(-0.267145042758 0.00498840964866 0)
(-0.257350413197 0.00522046136175 0)
(-0.247186320656 0.00545058706629 0)
(-0.236663379473 0.00567971804479 0)
(-0.225791292814 0.00590981281403 0)
(-0.214577106139 0.00614415407605 0)
(-0.203022989188 0.00638766760398 0)
(-0.191123539438 0.00664724689552 0)
(-0.178862608675 0.00693206298215 0)
(-0.166209662571 0.00725380378457 0)
(-0.153115784639 0.0076267198841 0)
(-0.139509892482 0.00806732714657 0)
(-0.125296793676 0.00859324990912 0)
(-0.110358594577 0.00921958332891 0)
(-0.0945551754238 0.00995060712085 0)
(-0.0777187266281 0.0107682841894 0)
(-0.059706023667 0.0116205457217 0)
(-0.0407679921417 0.0123492663332 0)
(-0.0224686512657 0.0122198153635 0)
(-0.0080525646698 0.00805206435769 0)
(0.00354334565602 0.0173865283034 0)
(0.00913810418499 0.011381649261 0)
(0.00247867329813 -0.000648021657408 0)
(-0.0237873212247 -0.0186506004824 0)
(-0.0433425218501 -0.0273871084476 0)
(-0.0656563466751 -0.0330790975003 0)
(-0.08904087398 -0.0353623688693 0)
(-0.113195649263 -0.0361482094507 0)
(-0.137568529036 -0.036030906314 0)
(-0.161506282709 -0.035269996263 0)
(-0.184623636957 -0.0340435086661 0)
(-0.206658313039 -0.0324914592318 0)
(-0.227443597929 -0.0307263520677 0)
(-0.246884481096 -0.0288377969526 0)
(-0.264940203449 -0.0268954665044 0)
(-0.281610088583 -0.0249517814641 0)
(-0.29692198094 -0.0230445789353 0)
(-0.310922948335 -0.0211997272654 0)
(-0.323671995328 -0.0194335806931 0)
(-0.335234527167 -0.0177551793129 0)
(-0.345678289328 -0.0161681374017 0)
(-0.355070508824 -0.0146722022838 0)
(-0.363475981701 -0.0132644964705 0)
(-0.370955881772 -0.0119404755195 0)
(-0.377567102471 -0.0106946433993 0)
(-0.383361979154 -0.00952106935595 0)
(-0.388388273779 -0.00841374727813 0)
(-0.392689332372 -0.00736683165446 0)
(-0.396304345795 -0.00637477811639 0)
(-0.399268659356 -0.00543241091831 0)
(-0.401614094151 -0.00453494068254 0)
(-0.403369301195 -0.00367794267907 0)
(-0.404560204661 -0.00285723073342 0)
(-0.405210430828 -0.00206841002898 0)
(-0.405340972029 -0.00130615639268 0)
(-0.404968175727 -0.000565000979746 0)
(-0.404101518441 0.000156238250511 0)
(-0.402778756766 0.000855385422366 0)
(-0.401026239699 0.00153388960971 0)
(-0.398870073655 0.00219303216747 0)
(-0.396321852118 0.00283340723637 0)
(-0.393391291733 0.00345681570346 0)
(-0.390085831476 0.00406544987732 0)
(-0.386411453204 0.00466164489945 0)
(-0.382372857525 0.00524776904493 0)
(-0.377973505968 0.00582617003561 0)
(-0.373215629199 0.00639913416836 0)
(-0.368100244973 0.00696884011454 0)
(-0.362627207495 0.00753729996865 0)
(-0.356795302746 0.00810628608031 0)
(-0.350602401012 0.00867724573234 0)
(-0.344045674327 0.00925120888705 0)
(-0.337121882218 0.00982869668768 0)
(-0.329827722873 0.0104096408524 0)
(-0.322160239693 0.0109933256941 0)
(-0.314117264563 0.011578365618 0)
(-0.305697870779 0.0121627308617 0)
(-0.296902799818 0.012743833643 0)
(-0.287734818787 0.0133186852177 0)
(-0.278198959139 0.0138841315979 0)
(-0.268302584356 0.0144371722031 0)
(-0.258055233385 0.0149753623547 0)
(-0.247468189713 0.0154972965968 0)
(-0.236553730796 0.0160031674187 0)
(-0.225324020302 0.016495390272 0)
(-0.213789612957 0.016979284733 0)
(-0.20195755557 0.0174637949586 0)
(-0.189829095859 0.017962206172 0)
(-0.177397012469 0.0184928115945 0)
(-0.164642556973 0.0190794421003 0)
(-0.151532161553 0.0197515244619 0)
(-0.138014357398 0.0205433589941 0)
(-0.124017659751 0.0214917187093 0)
(-0.109450279112 0.022628490986 0)
(-0.0942012322653 0.023963672962 0)
(-0.0781437646589 0.0254589034288 0)
(-0.0611644960504 0.0269914128023 0)
(-0.0433123644706 0.0282185341548 0)
(-0.0253425976848 0.0279361727526 0)
(-0.0102380589254 0.0223035067613 0)
(-0.0012038658652 0.0172630219914 0)
(-0.0155228889528 -0.0058361443078 0)
(-0.0338188541039 -0.0253769230298 -8.48098480847e-29)
(-0.054529045103 -0.0388508077962 5.37196262472e-29)
(-0.0757359892658 -0.0487853875457 4.05582927096e-29)
(-0.0975500033571 -0.0557123685721 -3.30749151354e-29)
(-0.119715408097 -0.0591450445898 2.81115839495e-29)
(-0.142105039883 -0.0602844379866 -2.49282653597e-29)
(-0.164257168184 -0.0598823088141 0)
(-0.185734383628 -0.0583838541519 0)
(-0.206242393733 -0.056113474339 0)
(-0.225588131677 -0.0533208252936 0)
(-0.243662790761 -0.0502015734533 0)
(-0.260420266912 -0.0469078476311 0)
(-0.275859893199 -0.0435552053907 0)
(-0.290012386804 -0.040228483229 0)
(-0.302928776399 -0.0369871897326 0)
(-0.31467194625 -0.0338705114284 0)
(-0.325310416251 -0.0309018291905 0)
(-0.334913959114 -0.0280926413431 0)
(-0.3435506668 -0.0254458423089 0)
(-0.351285114941 -0.0229583648016 0)
(-0.358177327101 -0.0206232379161 0)
(-0.364282300547 -0.0184311392956 0)
(-0.369649907692 -0.0163715288441 0)
(-0.374325040846 -0.0144334492358 0)
(-0.378347902964 -0.0126060686742 0)
(-0.38175437887 -0.0108790273977 0)
(-0.384576436761 -0.00924263797204 0)
(-0.386842516254 -0.00768798749642 -7.05309991204e-29)
(-0.388577904356 -0.0062069823469 7.04804404206e-29)
(-0.389805145709 -0.00479232171429 0)
(-0.390544743726 -0.00343727377735 0)
(-0.390815843471 -0.00213517098644 0)
(-0.390634577439 -0.000879328129335 0)
(-0.390007971928 0.000334513893286 0)
(-0.388971068671 0.00150219808245 0)
(-0.387533288614 0.00262333160826 0)
(-0.385701706556 0.00370548690375 0)
(-0.383485807741 0.00475505636124 0)
(-0.3808940788 0.0057771942516 0)
(-0.377934367947 0.00677577194815 0)
(-0.374613416669 0.00775435085345 0)
(-0.370936839753 0.00871641790863 0)
(-0.366909103756 0.00966545139925 0)
(-0.362533499638 0.0106049186825 0)
(-0.357812117625 0.0115382361521 0)
(-0.35274584054 0.0124686986971 0)
(-0.347334371674 0.0133993794186 0)
(-0.341576312288 0.0143330025175 0)
(-0.33546930217 0.0152717937893 0)
(-0.32901023381 0.0162173183827 0)
(-0.322195546215 0.0171703181571 0)
(-0.315021598002 0.0181305662518 0)
(-0.307485111211 0.0190967580632 0)
(-0.299583668046 0.0200664609917 0)
(-0.291316233149 0.0210361437714 0)
(-0.282683664923 0.0220013060846 0)
(-0.273689170657 0.0229567252352 0)
(-0.264338653726 0.0238968324469 0)
(-0.254640898175 0.0248162228155 0)
(-0.244607536182 0.0257102985024 0)
(-0.234252748621 0.0265760337181 0)
(-0.223592656055 0.0274128484353 0)
(-0.212644368814 0.0282235663039 0)
(-0.201424676029 0.029015429499 0)
(-0.189948354695 0.0298011465557 0)
(-0.17822612857 0.0305998808998 0)
(-0.166262335053 0.0314380738486 0)
(-0.154052172452 0.0323501482273 0)
(-0.141578713342 0.0333783805425 0)
(-0.128810189463 0.0345714423727 0)
(-0.115697274818 0.0359810350332 0)
(-0.102170137333 0.0376526830936 0)
(-0.088137337682 0.0396044501928 0)
(-0.0734903246357 0.0417878220985 0)
(-0.0581090390356 0.0440134998301 0)
(-0.0418745439289 0.0457544087605 0)
(-0.025014321776 0.045511439849 0)
(-0.00986852602569 0.0390608740135 0)
(-0.0109390151731 0.00387345011028 0)
(-0.0321135578394 -0.0259759432913 0)
(-0.0522072199848 -0.0450140805289 0)
(-0.0735634837091 -0.059686764746 0)
(-0.0947767069972 -0.070224898942 0)
(-0.115834230737 -0.0772117320267 0)
(-0.136590118895 -0.0806869858838 0)
(-0.156932019249 -0.0815284598565 0)
(-0.176608775971 -0.0804542960021 0)
(-0.19540035978 -0.0780018043605 0)
(-0.213152834128 -0.0745936173736 0)
(-0.229774703581 -0.0705613102766 0)
(-0.245229474197 -0.0661633882931 0)
(-0.259521398443 -0.061597380529 0)
(-0.272682438511 -0.0570096646577 0)
(-0.284761418869 -0.0525043216345 0)
(-0.295815829698 -0.0481513346865 0)
(-0.305906069696 -0.0439940385003 0)
(-0.315091697627 -0.0400556428752 0)
(-0.323429205212 -0.0363447177304 0)
(-0.330970863391 -0.0328596262222 0)
(-0.337764276407 -0.0295919781622 0)
(-0.343852370615 -0.0265292295865 0)
(-0.349273628985 -0.0236565759008 0)
(-0.35406244694 -0.0209582851067 0)
(-0.35824953654 -0.0184186026914 0)
(-0.361862338175 -0.016022336035 0)
(-0.364925417179 -0.0137552024275 0)
(-0.367460821971 -0.0116040081544 0)
(-0.369488381412 -0.00955672595489 0)
(-0.371025987255 -0.00760251574062 0)
(-0.372090049325 -0.00573161150513 0)
(-0.372696292427 -0.00393486810743 0)
(-0.372859921062 -0.00220330811816 0)
(-0.372592055031 -0.00052955351629 0)
(-0.371892488625 0.00108844419624 0)
(-0.370809062331 0.00264957243876 0)
(-0.369331198758 0.00415900941718 0)
(-0.367472557445 0.00562247523675 0)
(-0.36524189797 0.00704491908841 0)
(-0.362647688803 0.00843133225918 0)
(-0.359697576843 0.00978646992451 0)
(-0.356398251005 0.011114987988 0)
(-0.35275537738 0.0124215319336 0)
(-0.348773535973 0.0137107781439 0)
(-0.344456153952 0.0149874276763 8.47885229541e-29)
(-0.339805444129 0.0162561546059 -8.55872700315e-29)
(-0.334822363337 0.0175215086935 0)
(-0.32950660754 0.0187877725765 0)
(-0.323856661262 0.0200587760987 0)
(-0.317869918391 0.0213376748489 0)
(-0.311542889152 0.0226267052886 0)
(-0.304871503543 0.0239269351457 0)
(-0.297851514491 0.0252380334858 0)
(-0.290478994717 0.0265580896788 0)
(-0.282750910193 0.0278835131934 0)
(-0.274665741933 0.0292090461457 0)
(-0.26622411784 0.0305279172001 1.25065437686e-28)
(-0.257429405794 0.0318321634918 -1.28268901712e-28)
(-0.248288210044 0.0331131388376 0)
(-0.238810711836 0.034362211788 0)
(-0.229010793877 0.0355716546181 0)
(-0.2189058977 0.0367356997025 0)
(-0.208516570801 0.0378517456213 0)
(-0.197865672897 0.0389216770043 0)
(-0.186977243526 0.0399532369167 0)
(-0.175874990662 0.0409614608782 0)
(-0.164580403866 0.041970059449 0)
(-0.153110783009 0.043012372337 0)
(-0.141476682425 0.0441326416602 0)
(-0.129678863526 0.0453861023914 0)
(-0.117705925353 0.0468369714282 0)
(-0.105531528287 0.0485556103954 0)
(-0.0931092150197 0.0506102588114 0)
(-0.0803675812185 0.0530451804985 0)
(-0.0672103540055 0.0558372323825 0)
(-0.0535004131473 0.0588022185505 0)
(-0.0389937720698 0.061368893247 0)
(-0.0236289875918 0.0618775233757 0)
(-0.00903743314198 0.0554186062528 0)
(-0.0205608409611 -0.0227467305151 0)
(-0.0391525765766 -0.0475893246 0)
(-0.0614968793419 -0.0664434758576 0)
(-0.0834432453277 -0.0809784427117 0)
(-0.104497029204 -0.0911599528815 0)
(-0.124690520486 -0.0974747338392 0)
(-0.14401160144 -0.100317206307 0)
(-0.162458941682 -0.100428756479 0)
(-0.179957001323 -0.0984790678455 0)
(-0.196446477797 -0.0950344151358 0)
(-0.2118956579 -0.0905641520731 0)
(-0.226302116709 -0.0854447673283 0)
(-0.239688225775 -0.0799697554847 0)
(-0.252092803137 -0.0743602355243 0)
(-0.263563429764 -0.0687761866037 0)
(-0.274150468221 -0.0633276776685 0)
(-0.283903146989 -0.0580854837524 0)
(-0.292867414738 -0.0530905745608 0)
(-0.301085072123 -0.0483621622617 0)
(-0.308593694031 -0.0439042139329 0)
(-0.315426959863 -0.0397105074834 0)
(-0.321615136074 -0.0357684156747 0)
(-0.327185566867 -0.032061646242 0)
(-0.332163103005 -0.0285721650478 0)
(-0.336570453506 -0.0252815031935 0)
(-0.340428465593 -0.0221716128329 0)
(-0.34375635443 -0.0192253984728 0)
(-0.346571896588 -0.0164270163211 0)
(-0.348891571523 -0.0137620141821 0)
(-0.35073066625 -0.0112173799663 0)
(-0.352103409208 -0.00878153700342 -7.58685478135e-29)
(-0.353023570345 -0.00644417215021 7.61626757305e-29)
(-0.353505261987 -0.00419566821825 0)
(-0.353561458127 -0.0020268254058 0)
(-0.353197571358 6.85184539577e-05 0)
(-0.352429970687 0.00208873695062 0)
(-0.351282498866 0.0040377617144 0)
(-0.349754705157 0.00592599555618 0)
(-0.347858694137 0.00775903246964 0)
(-0.345603070684 0.00954271932663 0)
(-0.34299611709 0.0112827252139 0)
(-0.340045451087 0.0129845885297 0)
(-0.336757910288 0.0146538349276 0)
(-0.33313943618 0.0162960685212 0)
(-0.329194957854 0.0179170169452 0)
(-0.324928273642 0.0195225233582 0)
(-0.320341938725 0.0211184809788 0)
(-0.315437172976 0.0227107063491 0)
(-0.310213807539 0.0243047490989 0)
(-0.304670291335 0.0259056401272 0)
(-0.298803779607 0.0275175859191 0)
(-0.292610325296 0.0291436245582 0)
(-0.286085189692 0.0307852675845 0)
(-0.279223280761 0.0324421609488 0)
(-0.272019716541 0.0341118046714 0)
(-0.264470497264 0.0357893755222 0)
(-0.256573254933 0.0374676976012 0)
(-0.248328039695 0.0391373975359 0)
(-0.239738089246 0.0407872815053 0)
(-0.230810509753 0.0424049661703 0)
(-0.221556804342 0.0439777519681 0)
(-0.211993174212 0.0454937576201 0)
(-0.202140538831 0.0469432575495 0)
(-0.192024233782 0.0483202043346 0)
(-0.181673331602 0.0496239074583 0)
(-0.171119648239 0.0508607092155 0)
(-0.160396397873 0.0520457306849 0)
(-0.149536179829 0.0532048342835 0)
(-0.138569527029 0.0543751857348 0)
(-0.127522487809 0.0556075341733 0)
(-0.116412959636 0.0569669562168 0)
(-0.10524843203 0.0585292895345 0)
(-0.0940244422373 0.0603800637959 0)
(-0.0827185419444 0.0626101893362 0)
(-0.0712805168152 0.0652944621304 0)
(-0.0596314832492 0.0684511486826 0)
(-0.0476367665909 0.0719484448636 0)
(-0.0349742031424 0.0752844367421 0)
(-0.0214861742587 0.0767645651651 0)
(-0.00797750494862 0.0706299290607 0)
(-0.0201109780314 -0.0477920160202 0)
(-0.0407279142467 -0.071679934428 0)
(-0.0649217704193 -0.0891550647054 0)
(-0.0870961672393 -0.102474646067 0)
(-0.107791832529 -0.111490509753 0)
(-0.12709751973 -0.116638571472 0)
(-0.145121348793 -0.11840719672 0)
(-0.161970489297 -0.117475744506 0)
(-0.177701785574 -0.114487807186 0)
(-0.19237034749 -0.110013952038 0)
(-0.206032884919 -0.104537093344 0)
(-0.218749081113 -0.0984476459462 0)
(-0.230578910841 -0.0920484058072 0)
(-0.241579010155 -0.0855642392546 0)
(-0.251800150357 -0.0791544068034 0)
(-0.261286139944 -0.0729255143554 0)
(-0.2700739964 -0.0669437017503 0)
(-0.278194899458 -0.0612452343932 0)
(-0.285675447631 -0.0558451553211 0)
(-0.292538873614 -0.0507440127406 0)
(-0.298806034524 -0.0459328878497 0)
(-0.30449612108 -0.0413970343013 0)
(-0.309627110181 -0.0371184446445 0)
(-0.314216018722 -0.0330776198436 0)
(-0.318279026315 -0.0292547628887 0)
(-0.321831525321 -0.0256305627589 0)
(-0.324888145968 -0.0221866898796 0)
(-0.327462779686 -0.0189060895544 0)
(-0.32956857797 -0.0157731383834 0)
(-0.331217917973 -0.0127737139656 0)
(-0.332422530925 -0.00989519674749 0)
(-0.333194293833 -0.0071263322506 0)
(-0.333545986351 -0.00445688560617 0)
(-0.333487922046 -0.00187773063693 0)
(-0.333019049848 0.000616969409335 0)
(-0.332175897566 0.00302605481828 0)
(-0.330952573237 0.00535385364983 0)
(-0.329361776886 0.00761069784779 0)
(-0.32741323133 0.00980301292318 0)
(-0.325115894631 0.0119372160272 0)
(-0.322478227893 0.0140195607443 0)
(-0.319508170445 0.0160562768939 0)
(-0.316213037027 0.0180536994405 0)
(-0.312599376044 0.0200183692692 0)
(-0.308672805903 0.0219570864974 0)
(-0.304437839096 0.0238769040849 0)
(-0.299897705981 0.0257850514734 0)
(-0.295054195107 0.0276887792062 0)
(-0.289907532281 0.0295951184057 0)
(-0.284456325101 0.0315105543332 0)
(-0.278697602259 0.0334406216183 0)
(-0.272626976891 0.0353894390427 0)
(-0.266238959423 0.0373592140249 0)
(-0.259527435536 0.0393497607618 0)
(-0.252486311219 0.0413580851157 0)
(-0.24511031024 0.0433780943208 0)
(-0.237395885738 0.0454004977559 0)
(-0.229342200729 0.0474129409192 0)
(-0.220952125803 0.0494004156629 0)
(-0.212233146022 0.0513460286524 0)
(-0.203198120751 0.0532320444461 0)
(-0.193865787247 0.055041306064 0)
(-0.184260944328 0.0567588813634 0)
(-0.174414314297 0.0583739123538 0)
(-0.164361916313 0.059881741391 0)
(-0.154144109804 0.0612859156455 0)
(-0.143804622923 0.0625999977437 0)
(-0.133387603749 0.0638509624845 0)
(-0.12293727697 0.0650779654515 0)
(-0.11249531745 0.0663364203727 0)
(-0.102096601918 0.0677010401245 0)
(-0.091765188706 0.0692575836164 0)
(-0.08151467193 0.0711032930902 0)
(-0.0713458095124 0.0733514796191 0)
(-0.0612261387561 0.0761076843588 0)
(-0.0510972070924 0.079436939885 0)
(-0.0408494249833 0.0832800122324 0)
(-0.0301066083656 0.0872638910545 0)
(-0.01878638153 0.0897882500372 0)
(-0.00677442273653 0.0842197154526 0)
(-0.0187371016002 -0.0753404421093 0)
(-0.0400682038475 -0.0969530386227 0)
(-0.0648914642605 -0.112316781066 0)
(-0.0867598795185 -0.123797404564 0)
(-0.106873532997 -0.13113964918 0)
(-0.125270235198 -0.134764827547 0)
(-0.142145304247 -0.135177523031 0)
(-0.157675816028 -0.133019037948 0)
(-0.172004982724 -0.128910399985 0)
(-0.185261807121 -0.123410517516 0)
(-0.197558867057 -0.116993474849 1.15018492123e-28)
(-0.208992636606 -0.110040745809 -1.1340228053e-28)
(-0.219642808633 -0.102844849992 0)
(-0.22957266173 -0.0956195912504 0)
(-0.238830795991 -0.0885135283103 0)
(-0.247453800738 -0.0816239442217 0)
(-0.255469262787 -0.0750095896259 0)
(-0.262898570746 -0.0687013481221 0)
(-0.269759190029 -0.0627106270215 0)
(-0.276066299978 -0.0570356685096 0)
(-0.281833839436 -0.0516661483091 0)
(-0.287075086114 -0.0465864560376 0)
(-0.291802914962 -0.0417780034909 0)
(-0.296029863369 -0.0372208338756 0)
(-0.299768101933 -0.0328947330255 0)
(-0.30302937814 -0.0287799839976 0)
(-0.305824975265 -0.0248578637581 0)
(-0.308165697179 -0.0211109552241 0)
(-0.310061845621 -0.0175233327589 0)
(-0.311523179544 -0.0140806487574 0)
(-0.312559093922 -0.0107701012416 0)
(-0.313179500653 -0.0075802875489 8.3877471828e-29)
(-0.313395387397 -0.00450119058126 -8.46249047032e-29)
(-0.313214365665 -0.0015247464902 0)
(-0.312631166408 0.00135430733311 0)
(-0.311688855499 0.00413761948576 0)
(-0.310374266866 0.00683111495321 0)
(-0.308701552095 0.00944389552099 0)
(-0.306679345223 0.0119832343692 0)
(-0.304316587323 0.0144558995245 0)
(-0.301622080031 0.0168684773866 0)
(-0.298604393025 0.019227627596 0)
(-0.295271698076 0.0215402677173 0)
(-0.291631572487 0.0238137044623 0)
(-0.287690774644 0.0260557063893 0)
(-0.283454998119 0.028274506634 0)
(-0.278928615633 0.030478721039 0)
(-0.274114431477 0.0326771666855 0)
(-0.269013469128 0.0348785685858 0)
(-0.263624828292 0.037091148944 0)
(-0.257945650699 0.0393221044887 0)
(-0.251971235467 0.0415769916459 0)
(-0.245695343119 0.0438590545788 0)
(-0.239110714598 0.0461685542341 0)
(-0.232209811194 0.0485021714271 0)
(-0.224985768329 0.0508525511206 0)
(-0.217433509034 0.0532080953037 0)
(-0.20955095401 0.0555530539849 0)
(-0.201340324221 0.0578679074349 0)
(-0.192809311578 0.0601303298644 0)
(-0.183972132834 0.0623163535799 0)
(-0.174850274992 0.0644021551103 0)
(-0.16547282809 0.0663660653219 0)
(-0.155876579812 0.0681907107028 0)
(-0.14610542867 0.0698657422752 0)
(-0.136209077683 0.0713904202894 0)
(-0.126243577973 0.0727744102288 0)
(-0.116265027697 0.0740452292975 0)
(-0.106333135541 0.0752420402799 0)
(-0.0965047507307 0.0764219311612 0)
(-0.086834178077 0.0776707186223 0)
(-0.0773630242198 0.0790853735321 0)
(-0.0681166799516 0.0807705953532 0)
(-0.0591212989171 0.0828631330828 0)
(-0.0503559923353 0.0854990880688 0)
(-0.0417824530573 0.0887904886215 0)
(-0.0333315062429 0.0927556241719 0)
(-0.0245692838399 0.0971670341734 0)
(-0.0156396294182 0.100665177764 0)
(-0.00546382090816 0.0958431422536 0)
(-0.0173184835756 -0.102629101998 0)
(-0.0384562238395 -0.122068978431 0)
(-0.0629184602458 -0.135183440564 0)
(-0.0840171298734 -0.144565581096 0)
(-0.103339824725 -0.149989368092 0)
(-0.120795273318 -0.151900431156 0)
(-0.136631056036 -0.150812071231 0)
(-0.151055306644 -0.147342903234 0)
(-0.164257795183 -0.142090459007 0)
(-0.176406924113 -0.135590664597 0)
(-0.187644076066 -0.128293905493 0)
(-0.198082989742 -0.120558108794 0)
(-0.207810898846 -0.112653692589 0)
(-0.216891880602 -0.104775257205 0)
(-0.225371469261 -0.0970559946549 0)
(-0.23328154453 -0.0895818853256 0)
(-0.240644727333 -0.0824040558625 0)
(-0.247477854294 -0.0755486989939 0)
(-0.253794431853 -0.0690246159465 0)
(-0.25960618648 -0.0628287585032 0)
(-0.264923926151 -0.0569502281495 0)
(-0.269757940256 -0.0513731448566 0)
(-0.274118129609 -0.0460787080232 0)
(-0.278014005578 -0.0410466822176 0)
(-0.281454649015 -0.0362564679633 0)
(-0.284448681153 -0.0316878650244 0)
(-0.287004269145 -0.0273216015926 0)
(-0.289129156765 -0.0231396897866 0)
(-0.290830687694 -0.019125665491 0)
(-0.292115842379 -0.0152647247559 0)
(-0.292991529623 -0.0115436691543 0)
(-0.29346539312 -0.00795065978938 0)
(-0.293545867499 -0.00447543465124 0)
(-0.293237359299 -0.00111084854793 0)
(-0.292531895277 0.0021465592073 0)
(-0.291478421838 0.00529853187677 0)
(-0.29005609689 0.00835262713843 0)
(-0.288280351769 0.0113172399078 0)
(-0.286159272223 0.0141994142298 0)
(-0.283702037469 0.0170057857132 0)
(-0.2809180884 0.0197429597017 0)
(-0.277816968914 0.0224177915364 0)
(-0.274408101227 0.0250376009498 0)
(-0.27070053545 0.0276103337363 0)
(-0.266702662309 0.0301446633664 9.90615157184e-29)
(-0.262421889469 0.0326500155296 -9.96518652271e-29)
(-0.257864290401 0.0351364932373 0)
(-0.253034245794 0.0376146782798 0)
(-0.247934109553 0.0400952874391 0)
(-0.242563943883 0.0425886695006 0)
(-0.236921376905 0.0451041435441 0)
(-0.231001638577 0.0476492008807 0)
(-0.22479783477 0.0502286074021 0)
(-0.21830150578 0.052843480187 0)
(-0.211503468702 0.0554904560604 0)
(-0.204394961832 0.0581609967528 0)
(-0.19696901737 0.0608410179142 0)
(-0.189221893709 0.0635109645747 0)
(-0.181154824781 0.0661459790979 0)
(-0.172775453104 0.0687172779291 0)
(-0.164099273463 0.0711932636201 0)
(-0.155150683079 0.073541843257 0)
(-0.145963389336 0.0757329365203 0)
(-0.136580832726 0.0777407354946 0)
(-0.127055928905 0.079547134513 0)
(-0.117447789698 0.0811459894326 0)
(-0.1078280957 0.0825394840768 0)
(-0.0982630966897 0.083755839066 0)
(-0.0888345418167 0.0848334563482 0)
(-0.079609571141 0.0858257878691 0)
(-0.070665718704 0.0868305559582 0)
(-0.0620724654002 0.0879629728751 0)
(-0.0538552651606 0.089329268334 0)
(-0.0460740174835 0.0910908144243 0)
(-0.038712567774 0.0934149106357 0)
(-0.0317525874118 0.0964573895145 0)
(-0.0251706198745 0.100312462112 0)
(-0.0184580333975 0.10487594586 0)
(-0.0120954336231 0.109165808753 0)
(-0.0040550652765 0.105219767814 0)
(-0.015904377663 -0.128470955624 0)
(-0.0363168666263 -0.146205479075 0)
(-0.059850130754 -0.15720244545 0)
(-0.0798941850518 -0.164471068086 0)
(-0.0982767126073 -0.167925756375 0)
(-0.114763682378 -0.168072692678 0)
(-0.129635077121 -0.165445494904 0)
(-0.143100937499 -0.160653605936 0)
(-0.155368602211 -0.154272538956 0)
(-0.166620242067 -0.146809752742 0)
(-0.177006442447 -0.138684140941 0)
(-0.186645047053 -0.130222811851 0)
(-0.195623687352 -0.121668811581 0)
(-0.204004905373 -0.113194521351 0)
(-0.211832173169 -0.10491654988 0)
(-0.219135572318 -0.0969094508957 0)
(-0.225936418643 -0.0892170547301 0)
(-0.232250607874 -0.0818612102491 0)
(-0.238090792278 -0.0748482675139 0)
(-0.243467654829 -0.0681738062984 0)
(-0.248390574811 -0.0618260887411 0)
(-0.252867935089 -0.055788609271 0)
(-0.256907251734 -0.0500420026541 0)
(-0.260515239832 -0.0445654823845 0)
(-0.263697879382 -0.0393379215262 0)
(-0.266460511165 -0.0343386490226 0)
(-0.268807962803 -0.0295480118876 0)
(-0.270744670575 -0.024947753262 0)
(-0.272274774969 -0.020521270393 0)
(-0.273402295978 -0.0162537632768 0)
(-0.274131674696 -0.0121321123448 0)
(-0.274468427804 -0.00814436564936 0)
(-0.274417843881 -0.00427991882582 9.48549470352e-29)
(-0.27397947004 -0.000532810850623 -9.62851675892e-29)
(-0.273143767922 0.00309532971422 0)
(-0.271966310222 0.00660777418593 0)
(-0.270419380326 0.0100173489678 0)
(-0.268518707622 0.0133297682403 0)
(-0.266272115227 0.0165509592371 0)
(-0.263689239492 0.0196868476243 0)
(-0.260780395842 0.02274362457 0)
(-0.257556357885 0.0257279837784 0)
(-0.254028097869 0.0286473468755 0)
(-0.250206501236 0.0315100588375 0)
(-0.246102028278 0.0343255327082 0)
(-0.241724314618 0.0371043155279 0)
(-0.237081715188 0.0398580412418 0)
(-0.232180811717 0.0425992323918 0)
(-0.227025921713 0.0453409148729 0)
(-0.221618665952 0.048096018662 0)
(-0.215957670066 0.050876552273 0)
(-0.210038473337 0.0536925818135 0)
(-0.203853732212 0.0565510478198 0)
(-0.19739382029 0.059454489262 0)
(-0.190647769443 0.0623999304374 0)
(-0.183604630317 0.0653778472689 0)
(-0.176255243712 0.0683714940568 0)
(-0.168593713211 0.0713572154928 0)
(-0.160619947949 0.0743037906026 0)
(-0.152341196793 0.0771749232513 0)
(-0.143774106857 0.0799297731185 0)
(-0.134946094246 0.0825261125534 0)
(-0.125895743964 0.0849236493044 0)
(-0.116673375565 0.0870859765914 0)
(-0.107342716229 0.0889842946351 0)
(-0.0979698014151 0.0906067364259 0)
(-0.0886500019687 0.0919427344687 0)
(-0.0794484575377 0.0930204645246 0)
(-0.0704897308436 0.093880585789 0)
(-0.0618380825847 0.0945674666668 0)
(-0.0535922218289 0.0951837699208 0)
(-0.045877287733 0.095877241749 0)
(-0.0386978754418 0.0967496704789 0)
(-0.0321620685095 0.097985803324 0)
(-0.0262539386161 0.0997874111304 0)
(-0.0209802551768 0.102353219445 0)
(-0.0163554963189 0.105855977598 0)
(-0.0117952583411 0.11027195628 0)
(-0.0081488569096 0.115081279581 0)
(-0.00253355954448 0.112089170055 0)
(-0.0145106698217 -0.152602974032 0)
(-0.03389329193 -0.16900864076 0)
(-0.0561980938317 -0.17806718622 0)
(-0.0750409856432 -0.18332261428 0)
(-0.0923981546563 -0.184871569868 0)
(-0.10790519594 -0.183297949933 0)
(-0.121865706862 -0.179167002404 0)
(-0.134473170241 -0.173088896557 0)
(-0.145934267058 -0.165619900275 0)
(-0.156428297501 -0.157237894883 0)
(-0.166102698237 -0.14832798133 0)
(-0.175071650735 -0.139184630319 0)
(-0.183419525892 -0.13002279764 0)
(-0.191206685275 -0.120992872059 0)
(-0.198475711226 -0.112195572775 0)
(-0.205256855045 -0.103694722568 0)
(-0.211572176841 -0.0955272641962 0)
(-0.217438359332 -0.0877107315923 0)
(-0.222868447395 -0.080248720131 0)
(-0.227872843326 -0.0731349165057 0)
(-0.23245985481 -0.066356129878 0)
(-0.236636016863 -0.0598946246411 0)
(-0.240406324038 -0.05372994178 0)
(-0.243774449681 -0.047840321824 0)
(-0.246742982975 -0.0422038007178 0)
(-0.249313694694 -0.0367990287281 0)
(-0.251487812283 -0.031605850591 0)
(-0.253266237273 -0.0266056929463 0)
(-0.254649737608 -0.0217818194912 0)
(-0.25563925159 -0.0171194689282 0)
(-0.256236868195 -0.012605709404 0)
(-0.25644634142 -0.00822883144973 0)
(-0.2562690308 -0.00397849970863 0)
(-0.255695395826 0.000150335152762 0)
(-0.254754600038 0.00415199055158 0)
(-0.253441058188 0.00803121314147 0)
(-0.251755839816 0.0118016089196 0)
(-0.249710378065 0.0154665830421 0)
(-0.247313786665 0.019030786441 0)
(-0.244576444489 0.0224991942901 0)
(-0.241509622967 0.0258772957135 0)
(-0.238125346067 0.0291713155721 0)
(-0.234436180423 0.0323884703342 0)
(-0.230454962784 0.0355372202167 0)
(-0.226194442436 0.0386274860875 0)
(-0.221666824477 0.0416707913225 0)
(-0.2168832113 0.0446802794999 0)
(-0.211852960217 0.047670550599 0)
(-0.206583000078 0.0506572573225 0)
(-0.201077174232 0.053656419551 0)
(-0.195335723743 0.0566834085266 0)
(-0.189355003974 0.0597516553806 0)
(-0.183127530132 0.0628711308009 0)
(-0.176642641693 0.0660465262231 0)
(-0.169887531609 0.0692758487577 0)
(-0.162848757829 0.0725489728095 0)
(-0.155514900032 0.0758461872005 0)
(-0.147877295707 0.079139820229 0)
(-0.139934384092 0.0823908771159 0)
(-0.131692529976 0.0855546258645 0)
(-0.123169549102 0.0885791595173 0)
(-0.11439582047 0.0914098718403 0)
(-0.105415143923 0.0939942964875 0)
(-0.0962839247017 0.0962831540293 0)
(-0.0870808009494 0.0982327945694 0)
(-0.0778691699719 0.0998262994464 0)
(-0.0687908439026 0.101036426627 0)
(-0.0598737085544 0.101885449027 0)