/*--------------------------------*- C++ -*----------------------------------*\
| =========                 |                                                 |
| \\      /  F ield         | OpenFOAM: The Open Source CFD Toolbox           |
|  \\    /   O peration     | Version:  v1806                                 |
|   \\  /    A nd           | Web:      www.OpenFOAM.com                      |
|    \\/     M anipulation  |                                                 |
\*---------------------------------------------------------------------------*/
FoamFile
{
    version     2.0;
    format      ascii;
    class       volVectorField;
    location    "800";
    object      U;
}
// * * * * * * * * * * * * * * * * * * * * * * * * * * * * * * * * * * * * * //

dimensions      [0 1 -1 0 0 0 0];


internalField   nonuniform List<vector> 
6400
(
(0.00912851810103 0.019213820455 0)
(0.0228964660163 0.0129087841445 0)
(0.0297150859652 0.00981975255751 0)
(0.0281651493301 0.00777213988744 0)
(0.0228844109825 -0.000211927802107 0)
(-0.00970129720648 -0.0153349504843 0)
(-0.0363741355101 -0.0158668119145 0)
(-0.0607418222264 -0.0150184342372 0)
(-0.0857571326122 -0.014451330424 0)
(-0.110269509117 -0.0138499509638 0)
(-0.134010009203 -0.0131708393391 0)
(-0.156747969536 -0.012433499551 0)
(-0.178325728886 -0.0116640847188 0)
(-0.198645862802 -0.0108858462847 0)
(-0.217660000994 -0.0101170487482 0)
(-0.235357820754 -0.00937099411068 0)
(-0.251757196257 -0.00865665383752 0)
(-0.266895808823 -0.00797946115993 0)
(-0.280824298063 -0.0073420945868 0)
(-0.29360088256 -0.00674518146433 0)
(-0.305287292562 -0.00618789321078 0)
(-0.315945816488 -0.0056684264232 0)
(-0.325637254239 -0.00518437650682 0)
(-0.334419582183 -0.00473301698854 0)
(-0.342347157948 -0.00431150005963 0)
(-0.349470320852 -0.00391699382267 0)
(-0.355835272353 -0.00354676999705 0)
(-0.361484144773 -0.00319825337286 0)
(-0.366455186117 -0.00286904112552 0)
(-0.370783004146 -0.00255689720249 0)
(-0.37449883517 -0.00225972686474 0)
(-0.37763083056 -0.00197553765127 0)
(-0.380204327719 -0.00170236599284 0)
(-0.382241942096 -0.00143806743135 0)
(-0.383763201475 -0.00117989459955 0)
(-0.384783753949 -0.000924258264514 0)
(-0.385315305562 -0.000667556397731 0)
(-0.38536973546 -0.000408329846716 0)
(-0.384953580035 -0.000148392093306 0)
(-0.384069719262 0.000107709604151 0)
(-0.382732865003 0.000357227775328 0)
(-0.380955709596 0.000600066135979 0)
(-0.378750239183 0.000836876868203 0)
(-0.376126979129 0.00106856343084 0)
(-0.373094825579 0.0012961019964 0)
(-0.369661001796 0.00152047790009 0)
(-0.365831071427 0.00174265786357 0)
(-0.361608986252 0.00196357082216 0)
(-0.356997168382 0.00218408797997 0)
(-0.351996634123 0.00240499919359 0)
(-0.346607168081 0.00262698579984 0)
(-0.340827554324 0.00285059139009 0)
(-0.334655867507 0.00307619329726 0)
(-0.328089821159 0.00330397825251 0)
(-0.321127163286 0.00353392651523 0)
(-0.313766101307 0.003765809035 0)
(-0.306005729778 0.00399920253031 0)
(-0.297846426041 0.00423352695783 0)
(-0.289290171588 0.00446810947156 0)
(-0.280340750985 0.00470227809404 0)
(-0.271003775811 0.00493548770191 0)
(-0.261286478814 0.00516747965961 0)
(-0.251197223606 0.00539847553915 0)
(-0.240744677854 0.00562940411231 0)
(-0.229936602385 0.00586215953596 0)
(-0.218778213421 0.00609988821421 0)
(-0.207270084593 0.00634730080472 0)
(-0.195405579348 0.00661099720276 0)
(-0.183167826374 0.0068997804418 0)
(-0.170526228815 0.00722492643786 0)
(-0.157432505618 0.00760032188962 0)
(-0.143816669224 0.00804234998378 0)
(-0.1295846289 0.00856914292276 0)
(-0.11461958838 0.00919783084235 0)
(-0.0987826486449 0.00993766376833 0)
(-0.0818989130133 0.0107805662014 0)
(-0.0637705561388 0.0116960109523 0)
(-0.0444833739245 0.0125912080885 0)
(-0.0254020762 0.0129736456333 0)
(-0.0100416108528 0.0106143115312 0)
(0.00018987576405 0.0284378524078 0)
(0.0120453234731 0.015496838106 0)
(0.0069624900377 -0.00169985839368 0)
(-0.021992628108 -0.02178554691 0)
(-0.0406367510304 -0.0301361838041 0)
(-0.0635135153301 -0.0357671235479 0)
(-0.0872603048732 -0.0371946416781 0)
(-0.111842776846 -0.0372858980498 0)
(-0.136750898905 -0.0368351314263 0)
(-0.161124082562 -0.0358920797996 0)
(-0.184606891503 -0.034553973075 0)
(-0.206952418845 -0.0329265982371 0)
(-0.228007777997 -0.0311066503071 0)
(-0.24768715946 -0.0291758856805 0)
(-0.265956177414 -0.0271997431442 0)
(-0.282818723717 -0.0252281712932 0)
(-0.298306030922 -0.0232974452255 0)
(-0.31246773951 -0.0214323715783 0)
(-0.325364833151 -0.0196485377328 0)
(-0.337064246259 -0.0179544051011 0)
(-0.34763490381 -0.0163531399361 0)
(-0.357144937819 -0.0148441394757 0)
(-0.365659834517 -0.0134242539918 0)
(-0.37324129224 -0.0120887309615 0)
(-0.379946604194 -0.0108319201614 0)
(-0.38582841534 -0.00964778212979 0)
(-0.390934736123 -0.00853024018894 0)
(-0.395309123984 -0.00747341034786 0)
(-0.398990964317 -0.00647173659725 0)
(-0.402015796365 -0.00552005345084 0)
(-0.404415647439 -0.00461359805958 0)
(-0.406219392997 -0.00374798765987 0)
(-0.407453211474 -0.00291910354812 0)
(-0.408141029082 -0.00212265463491 0)
(-0.408304222233 -0.00135344237036 0)
(-0.407959684921 -0.00060604365291 0)
(-0.407117501225 0.000120988765699 0)
(-0.405814089805 0.000825517780974 0)
(-0.404076739509 0.00150854026204 0)
(-0.401932956374 0.00217143426461 0)
(-0.399394915139 0.00281467063058 0)
(-0.396472980471 0.00343997966716 0)
(-0.393175209082 0.00404950100441 0)
(-0.38950821435 0.004645529921 0)
(-0.385477346938 0.00523040665291 0)
(-0.381086733137 0.0058064644457 0)
(-0.37633927452 0.00637599204978 0)
(-0.371236653792 0.00694119190038 0)
(-0.365779368458 0.0075041263191 0)
(-0.359966806673 0.00806664983887 0)
(-0.353797376286 0.00863032935973 0)
(-0.347268695014 0.00919635671036 0)
(-0.340377845581 0.00976546069986 0)
(-0.333121694127 0.0103378279897 0)
(-0.325497263367 0.0109130438813 0)
(-0.317502143954 0.0114900652782 0)
(-0.309134919034 0.0120672383662 0)
(-0.30039556861 0.0126423728226 0)
(-0.291285813288 0.0132128824855 0)
(-0.281809351403 0.0137760001693 0)
(-0.271971939575 0.0143290720551 0)
(-0.26178126519 0.014869933583 0)
(-0.251246560643 0.0153973653985 0)
(-0.240377912884 0.0159116253839 0)
(-0.22918522948 0.0164150473085 0)
(-0.21767683027 0.0169126967099 0)
(-0.205857640714 0.0174130726612 0)
(-0.19372698508 0.0179288271545 0)
(-0.181276013167 0.018477425679 0)
(-0.16848475185 0.0190817132871 0)
(-0.155318800656 0.0197701651779 0)
(-0.141725994842 0.0205765200587 0)
(-0.127633962017 0.0215381023252 0)
(-0.112949844722 0.0226901183079 0)
(-0.0975609533419 0.0240513088361 0)
(-0.0813306393909 0.0256015649436 0)
(-0.0641020581522 0.0272588628958 0)
(-0.0458283091082 0.0287896955019 0)
(-0.0271986080548 0.0292995956062 0)
(-0.0110523860372 0.0258579206063 0)
(-0.00747394215937 0.0268377724005 0)
(-0.015427475361 -0.00511401378765 0)
(-0.0348854639461 -0.0264156033887 -8.11438370776e-29)
(-0.0550498391006 -0.0409413419525 5.11857047146e-29)
(-0.0756160987254 -0.051343598955 3.89731887826e-29)
(-0.0970490882756 -0.0583540873421 -3.19205393561e-29)
(-0.119009411607 -0.0612495877085 2.73350755366e-29)
(-0.141510220732 -0.0618491491074 -2.43175111433e-29)
(-0.163928323521 -0.06109821025 0)
(-0.185691218519 -0.0593692640899 0)
(-0.206473940942 -0.0569407523953 0)
(-0.226070922093 -0.0540338068377 0)
(-0.244372791939 -0.0508279017708 0)
(-0.261335636092 -0.0474658909659 0)
(-0.276961594299 -0.0440578148153 0)
(-0.291284021883 -0.0406850453812 0)
(-0.304356215833 -0.0374047763825 0)
(-0.316242933459 -0.0342545516888 0)
(-0.327014203729 -0.0312565275023 0)
(-0.336740991991 -0.0284212576294 0)
(-0.345492316596 -0.0257508950858 0)
(-0.353333461419 -0.0232417885981 0)
(-0.360324984349 -0.020886511227 0)
(-0.366522281936 -0.0186753914321 0)
(-0.371975525706 -0.0165976302046 0)
(-0.376729835919 -0.0146420875165 0)
(-0.380825596884 -0.0127978126942 0)
(-0.384298848365 -0.0110543803597 0)
(-0.387181704913 -0.00940208199118 0)
(-0.389502761152 -0.00783201870267 -6.7499996938e-29)
(-0.391287467003 -0.00633613531596 6.74461459811e-29)
(-0.392558543197 -0.00490719388553 0)
(-0.393336678885 -0.00353857759539 0)
(-0.393641259777 -0.00222380033397 0)
(-0.393488850926 -0.000956276920985 0)
(-0.392887324114 0.000268438783956 0)
(-0.391868405721 0.00144645028037 0)
(-0.390446793051 0.00257672229472 0)
(-0.38862792914 0.00366654810974 0)
(-0.386422011506 0.00472229543084 0)
(-0.383837956982 0.00574911859252 0)
(-0.380884164121 0.00675082799621 0)
(-0.377567964164 0.00773091699943 0)
(-0.373895592786 0.00869281157449 0)
(-0.369872162103 0.00963994394855 0)
(-0.36550162669 0.0105757564237 0)
(-0.360786749679 0.0115036682554 0)
(-0.355729084368 0.0124270127784 0)
(-0.350328986734 0.0133489461452 0)
(-0.344585673397 0.0142723296037 0)
(-0.338497338067 0.0151995897288 0)
(-0.332061337001 0.0161325646861 0)
(-0.325274449925 0.0170723483482 0)
(-0.318133217078 0.0180191479383 0)
(-0.310634345584 0.0189721738158 0)
(-0.302775169592 0.0199295821611 0)
(-0.294554139039 0.0208884916821 0)
(-0.285971302422 0.0218450942637 0)
(-0.277028741242 0.0227948756479 0)
(-0.267730908628 0.023732957415 0)
(-0.258084820368 0.0246545680878 0)
(-0.248100045072 0.0255556443575 0)
(-0.237788443622 0.0264335543183 0)
(-0.227163611544 0.0272879340914 0)
(-0.216239990065 0.0281216115641 0)
(-0.20503162606 0.0289415949151 0)
(-0.193550564732 0.0297600924452 0)
(-0.181804853114 0.0305955503024 0)
(-0.169796251787 0.0314734775523 0)
(-0.157517620598 0.0324271669741 0)
(-0.144949941298 0.033497927267 0)
(-0.132059323447 0.0347341984301 0)
(-0.118794177737 0.0361889542355 0)
(-0.105082637949 0.0379125158568 0)
(-0.0908313202293 0.0399350172803 0)
(-0.075925368787 0.0422337466488 0)
(-0.0602191828972 0.044679665255 0)
(-0.0435489047867 0.0468897906309 0)
(-0.026247415442 0.0476313619328 0)
(-0.0101684312649 0.043632589405 0)
(-0.0185274721399 0.0121237293624 0)
(-0.0347169111021 -0.0234751640728 0)
(-0.0545207315033 -0.04462269367 0)
(-0.0751619854558 -0.0607535193115 0)
(-0.0957472540176 -0.0720944392813 0)
(-0.116306751731 -0.0793906053929 0)
(-0.136761377118 -0.0826820518362 0)
(-0.157046080587 -0.0832206581053 0)
(-0.176805230027 -0.0818840160487 0)
(-0.195742777615 -0.0792209781245 0)
(-0.213667083878 -0.0756482738854 0)
(-0.23046504344 -0.0714863326019 0)
(-0.24609080932 -0.0669845142201 0)
(-0.260544889156 -0.062333728029 0)
(-0.273858270161 -0.0576756990304 0)
(-0.286080005262 -0.0531111843854 0)
(-0.297268265855 -0.0487077102888 0)
(-0.30748422603 -0.044506729624 0)
(-0.316788153568 -0.04052997151 0)
(-0.325237121187 -0.0367848233362 0)
(-0.332883840375 -0.0332687009681 0)
(-0.339776226686 -0.0299724608249 0)
(-0.345957410061 -0.026882969332 0)
(-0.351465993747 -0.0239849720833 0)
(-0.356336434707 -0.0212624065962 0)
(-0.360599469825 -0.0186992887306 0)
(-0.364282546387 -0.016280280736 0)
(-0.367410234543 -0.0139910251643 0)
(-0.37000460106 -0.0118183118779 0)
(-0.372085521615 -0.00975014284455 0)
(-0.373670959746 -0.00777574037624 0)
(-0.374777392563 -0.00588543460761 0)
(-0.375420602774 -0.0040702477518 0)
(-0.375616038368 -0.00232145215142 0)
(-0.375375514859 -0.000631674877878 0)
(-0.374699498907 0.0010019093599 0)
(-0.373634125789 0.00257762698921 0)
(-0.372170288384 0.0040995969339 0)
(-0.37032196227 0.00557386709673 0)
(-0.368098504445 0.0070052106882 0)
(-0.365508914077 0.00839850505732 0)
(-0.362561400352 0.00975839305043 0)
(-0.359263245888 0.011089426753 0)
(-0.3556207417 0.0123961617682 0)
(-0.351639120667 0.0136832050115 0)
(-0.347322485694 0.0149552161717 8.13308551786e-29)
(-0.342673740778 0.0162168653709 -8.20921885624e-29)
(-0.337694538938 0.0174727470519 0)
(-0.33238526299 0.018727250112 0)
(-0.32674505591 0.0199843864915 0)
(-0.320771917156 0.0212475842955 0)
(-0.314462879442 0.022519456554 0)
(-0.307814276464 0.0238015624862 0)
(-0.300822105875 0.0250941837821 0)
(-0.293482483385 0.0263961431708 0)
(-0.285792173707 0.0277046957821 0)
(-0.277749172752 0.0290155246636 0)
(-0.269353303796 0.0303228700829 1.20595913634e-28)
(-0.260606780729 0.0316198168561 -1.23637464303e-28)
(-0.251514687916 0.0328987535528 0)
(-0.242085321481 0.0341520154663 0)
(-0.23233033151 0.0353727161317 0)
(-0.222264616153 0.0365557437876 0)
(-0.211905914983 0.037698923969 0)
(-0.20127406972 0.038804288666 0)
(-0.190389938016 0.0398794435662 0)
(-0.179273990711 0.0409389061705 0)
(-0.167944430981 0.0420056406021 0)
(-0.156415148615 0.0431120213462 0)
(-0.144693430567 0.044300919701 0)
(-0.132777078424 0.0456263712018 0)
(-0.120651554234 0.0471524597972 0)
(-0.10828710367 0.048950706146 0)
(-0.0956345744805 0.0510935574048 0)
(-0.0826212444547 0.0536373508076 0)
(-0.069150792985 0.0565850864531 0)
(-0.0550824509645 0.0598156062043 0)
(-0.0401337159152 0.0629266136106 0)
(-0.0245625318924 0.0644708568367 0)
(-0.00906294879123 0.0606506562344 0)
(-0.0247112669596 -0.0190478309304 0)
(-0.0416099691744 -0.0445643225896 0)
(-0.0638311878809 -0.065443401895 0)
(-0.0853414611426 -0.081437976854 0)
(-0.105941771661 -0.0924890436901 0)
(-0.12571860471 -0.0992089410184 0)
(-0.144757061235 -0.102081713651 0)
(-0.163083673005 -0.102074597486 0)
(-0.180569774555 -0.0999686638413 0)
(-0.197114339672 -0.0963677130224 0)
(-0.212657139469 -0.0917564235683 0)
(-0.227176578443 -0.0865145766203 0)
(-0.240683998648 -0.0809348076272 0)
(-0.253212049378 -0.0752360355211 0)
(-0.264805093333 -0.0695758265089 0)
(-0.275511894849 -0.0640619913419 0)
(-0.28538092424 -0.0587632996174 0)
(-0.294457769672 -0.0537189799698 0)
(-0.302784032794 -0.0489467562864 0)
(-0.310397133635 -0.0444493435136 0)
(-0.317330589785 -0.0402194856402 0)
(-0.323614483462 -0.0362437207516 0)
(-0.329275953694 -0.0325051012248 0)
(-0.33433963596 -0.0289850964294 0)
(-0.338828026285 -0.0256648794526 0)
(-0.342761774046 -0.0225261630896 0)
(-0.346159922183 -0.0195517124067 0)
(-0.349040109755 -0.0167256269572 0)
(-0.351418727011 -0.0140334647854 0)
(-0.353311016666 -0.011462277445 0)
(-0.354731215367 -0.00900059566039 -7.24816430742e-29)
(-0.355693082816 -0.00663824727056 7.27571599388e-29)
(-0.356210692419 -0.00436577891739 0)
(-0.356297380246 -0.00217415833351 0)
(-0.355960045604 -5.73340422657e-05 0)
(-0.355207380636 0.0019832704403 0)
(-0.354075486973 0.00395088583713 0)
(-0.352558454221 0.00585556952708 0)
(-0.350669587439 0.00770284283064 0)
(-0.348417758368 0.00949838393933 0)
(-0.34581172635 0.0112477007641 0)
(-0.342859651788 0.0129561782707 0)
(-0.339568962699 0.0146292017675 0)
(-0.335946229644 0.0162722531347 0)
(-0.331997044884 0.0178909626637 0)
(-0.327725899842 0.0194911100749 0)
(-0.323136067056 0.0210785708027 0)
(-0.318229499534 0.0226592038391 0)
(-0.313006764745 0.024238678898 0)
(-0.307467033148 0.0258222441745 0)
(-0.301608142263 0.0274144413351 0)
(-0.295426756314 0.0290187813635 0)
(-0.288918637829 0.0306374030775 0)
(-0.282079040598 0.0322707445418 0)
(-0.274903223645 0.0339172643692 0)
(-0.267387073412 0.0355732551064 0)
(-0.259527807535 0.0372327922449 0)
(-0.251324718756 0.0388878594761 0)
(-0.242779902272 0.0405286867753 0)
(-0.233898910961 0.0421443131616 0)
(-0.224691282943 0.0437233851034 0)
(-0.215170857346 0.045255222713 0)
(-0.205355841146 0.0467310656362 0)
(-0.195268549002 0.0481455736193 0)
(-0.184934804772 0.0494983895719 0)
(-0.174382916551 0.0507959502848 0)
(-0.163642551664 0.0520528852424 0)
(-0.152742725748 0.0532943918077 0)
(-0.141709932673 0.0545569267304 0)
(-0.130566246914 0.0558896332105 0)
(-0.119326331322 0.0573560089301 0)
(-0.107994321265 0.0590322293964 0)
(-0.0965614401107 0.0610049031731 0)
(-0.0850017414007 0.0633670459314 0)
(-0.0732641416399 0.0662037347018 0)
(-0.0612719562853 0.0695550380349 0)
(-0.0489137152549 0.0733350376511 0)
(-0.0357688553634 0.0772219807433 0)
(-0.0222984425726 0.0796891496786 0)
(-0.00780751397713 0.0763371215946 0)
(-0.022156263933 -0.0438873639998 0)
(-0.0423534524693 -0.0689807783831 0)
(-0.0668807340782 -0.0880606700939 0)
(-0.0889246963986 -0.102631608569 0)
(-0.109373735112 -0.112461947407 0)
(-0.128396009967 -0.118047014664 0)
(-0.146199170337 -0.119961511839 0)
(-0.162922331927 -0.119026857832 0)
(-0.17860384006 -0.115966419392 0)
(-0.193278845145 -0.111391109083 0)
(-0.206986352262 -0.10580615754 0)
(-0.219772408853 -0.0996127254722 0)
(-0.231687679705 -0.0931183172265 0)
(-0.242782612565 -0.0865492520101 0)
(-0.253103978095 -0.0800645877436 0)
(-0.262692970558 -0.0737699326256 0)
(-0.271584836385 -0.0677301035334 0)
(-0.279809480121 -0.0619799756303 0)
(-0.28739251421 -0.0565332749347 0)
(-0.294356357948 -0.0513893785524 0)
(-0.300721166032 -0.0465383747623 0)
(-0.306505507684 -0.0419647103509 0)
(-0.311726805895 -0.0376497505374 0)
(-0.316401587426 -0.033573533811 0)
(-0.320545605451 -0.0297159467257 0)
(-0.324173891123 -0.0260574878851 0)
(-0.327300780093 -0.0225797434602 0)
(-0.329939937237 -0.0192656607035 0)
(-0.332104358716 -0.0160996845917 0)
(-0.333806335224 -0.0130678130776 0)
(-0.335057573367 -0.0101575932426 0)
(-0.335869946353 -0.00735796276552 0)
(-0.336256250765 -0.00465882339179 0)
(-0.336227107205 -0.00205106669748 0)
(-0.335782390224 0.000470915214029 0)
(-0.334957390883 0.00290500662667 0)
(-0.333747236129 0.00525539747373 0)
(-0.332164611397 0.00753279487103 0)
(-0.330219926287 0.00974310917759 0)
(-0.327922647995 0.0118924701327 0)
(-0.325281768124 0.0139868997093 0)
(-0.322305786581 0.0160324258892 0)
(-0.319002614976 0.0180352027198 0)
(-0.31537943633 0.0200016118025 0)
(-0.311442541798 0.0219383214559 0)
(-0.30719715407 0.023852290316 0)
(-0.302647248662 0.0257507049793 0)
(-0.297795388809 0.0276408428198 0)
(-0.292642594689 0.0295298537972 0)
(-0.287188271906 0.0314244600152 0)
(-0.281430226793 0.0333305791693 0)
(-0.275364796471 0.035252887322 0)
(-0.268987118502 0.0371943479149 0)
(-0.262291556792 0.0391557466469 0)
(-0.255272288622 0.041135280871 0)
(-0.247924042308 0.0431282603425 0)
(-0.240242955978 0.0451269804225 0)
(-0.232227512803 0.0471208173653 0)
(-0.223879476293 0.049096608053 0)
(-0.215204755108 0.051039320995 0)
(-0.206214173403 0.0529329859557 0)
(-0.196923974716 0.0547620651666 0)
(-0.187356102063 0.0565129026083 0)
(-0.177538050536 0.0581757040933 0)
(-0.167502490616 0.0597462365622 0)
(-0.15728598059 0.0612285464594 0)
(-0.146928561558 0.0626356087586 0)
(-0.136470933652 0.0639937396656 0)
(-0.125952877109 0.0653421110347 0)
(-0.115411460758 0.0667341525904 0)
(-0.104878309412 0.0682417465915 0)
(-0.0943751898742 0.0699519702837 0)
(-0.0839114658613 0.0719642159442 0)
(-0.073482861948 0.074390380665 0)
(-0.0630582963615 0.0773441875662 0)
(-0.052574446829 0.0809092309382 0)
(-0.0419895582828 0.0850438354137 0)
(-0.030680706682 0.089547814689 0)
(-0.019594909576 0.0929563523184 0)
(-0.00644637284966 0.090302048916 0)
(-0.0198807512972 -0.0724746415854 0)
(-0.0411578129331 -0.0948705681241 0)
(-0.0664855037864 -0.111396788319 0)
(-0.0883965351773 -0.123873247835 0)
(-0.108422343727 -0.131916900625 0)
(-0.12665850302 -0.13596280982 0)
(-0.143385890207 -0.136572880325 0)
(-0.158814781744 -0.134477053734 0)
(-0.173089674478 -0.130353444453 0)
(-0.186333841377 -0.124796708285 0)
(-0.198651288755 -0.118303659118 1.11453255339e-28)
(-0.210130371214 -0.111269108328 -1.09911463129e-28)
(-0.22084418446 -0.10399297238 0)
(-0.230850888163 -0.0966926717774 0)
(-0.240195207666 -0.0895180987952 0)
(-0.248910776557 -0.0825665572569 0)
(-0.257022878977 -0.0758961273117 0)
(-0.264551057602 -0.0695367180253 0)
(-0.27151125585 -0.0634986910387 0)
(-0.277917368935 -0.0577793043738 0)
(-0.283782235066 -0.0523673798718 0)
(-0.289118180878 -0.0472466126724 0)
(-0.293937258356 -0.0423978849242 0)
(-0.298251296712 -0.037800866833 0)
(-0.302071864312 -0.0334351124377 0)
(-0.305410206234 -0.0292807958142 0)
(-0.308277198988 -0.0253191887298 0)
(-0.310683333288 -0.0215329530442 0)
(-0.31263868906 -0.017906304944 0)
(-0.31415288523 -0.0144250840397 0)
(-0.31523525289 -0.0110767181585 0)
(-0.315895722338 -0.00785007199591 7.9934760013e-29)
(-0.316145409611 -0.00473534870224 -8.06409980108e-29)
(-0.315992222781 -0.0017245344694 0)
(-0.315431414711 0.00118748760919 0)
(-0.31450476873 0.0040017132605 0)
(-0.313200522386 0.00672342259411 0)
(-0.311532897232 0.00936158539465 0)
(-0.309511082895 0.0119231976663 0)
(-0.307144527313 0.0144147655535 0)
(-0.304442560235 0.0168426274227 0)
(-0.301414307677 0.0192132096924 0)
(-0.298068532561 0.0215332121765 0)
(-0.294413442544 0.0238097427544 0)
(-0.29045646933 0.0260503971361 0)
(-0.286204025786 0.0282632729773 0)
(-0.281661251389 0.0304569043732 0)
(-0.276831763365 0.0326401022892 0)
(-0.271717438412 0.0348216890668 0)
(-0.266318256814 0.037010121228 0)
(-0.260632245393 0.039213004632 0)
(-0.254655558127 0.0414365182598 0)
(-0.248382731999 0.0436847776373 0)
(-0.241807144769 0.0459591902212 0)
(-0.234921686833 0.0482578658263 0)
(-0.22771964207 0.050575154176 0)
(-0.220195737691 0.0529014058226 0)
(-0.212347323846 0.0552229960591 0)
(-0.20417557714 0.0575227261728 0)
(-0.195686579452 0.0597806493454 0)
(-0.186892445906 0.0619749993099 0)
(-0.177811978806 0.064084103837 0)
(-0.168471309949 0.0660877721583 0)
(-0.158903647585 0.0679702709974 0)
(-0.149149692877 0.0697213794509 0)
(-0.139254848964 0.0713416742701 0)
(-0.129271481469 0.0728398303384 0)
(-0.11925280939 0.074242243948 0)
(-0.109253930042 0.0755898011116 0)
(-0.099327039134 0.0769375735782 0)
(-0.0895219112343 0.0783651636344 0)
(-0.0798797234744 0.0799714437545 0)
(-0.0704248617357 0.0818673232564 0)
(-0.061173500071 0.084182534367 0)
(-0.0521142162208 0.0870588814718 0)
(-0.0431808870294 0.0906273144292 0)
(-0.0344545503288 0.0948991987488 0)
(-0.0250047801159 0.0997851222534 0)
(-0.016525593437 0.104034743737 0)
(-0.00500045472648 0.102256445912 0)
(-0.0180657540517 -0.100645588748 0)
(-0.0392798524711 -0.120563192781 0)
(-0.0642420281498 -0.134535944824 0)
(-0.0854539520022 -0.144693873705 0)
(-0.104788181041 -0.150695693693 0)
(-0.122174243195 -0.152983229199 0)
(-0.137927185127 -0.152103340645 0)
(-0.152284266529 -0.148729128989 0)
(-0.165445426472 -0.143497875971 0)
(-0.177581412715 -0.136974344511 0)
(-0.188831434161 -0.129629131496 0)
(-0.199305501739 -0.12183333471 0)
(-0.209086852626 -0.113865444372 0)
(-0.21823581183 -0.105924550757 0)
(-0.226794597545 -0.0981459742694 0)
(-0.234792220143 -0.090616356255 0)
(-0.242248834834 -0.0833866441933 0)
(-0.249179157807 -0.0764824297113 0)
(-0.25559486615 -0.0699117561041 0)
(-0.26150610317 -0.0636708189337 0)
(-0.2669223047 -0.0577480527466 0)
(-0.271852572164 -0.052127042001 0)
(-0.276305782269 -0.0467885962989 0)
(-0.280290570998 -0.0417122339911 0)
(-0.283815280714 -0.036877241551 0)
(-0.286887921384 -0.0322634209532 0)
(-0.289516169031 -0.0278516017135 0)
(-0.291707393592 -0.0236239787789 0)
(-0.293468677652 -0.0195643313824 0)
(-0.294806833312 -0.0156581380149 0)
(-0.295728669078 -0.0118925228739 0)
(-0.296241835493 -0.00825605623723 0)
(-0.29635500427 -0.00473894471328 0)
(-0.296072990528 -0.00133421295247 0)
(-0.29538809844 0.00196191053844 0)
(-0.294348015623 0.00515074023607 0)
(-0.292933361891 0.00823866335447 0)
(-0.291159741909 0.0112337825251 0)
(-0.289035774762 0.0141428521254 0)
(-0.286571136342 0.0169722325562 0)
(-0.283775779626 0.019728258275 0)
(-0.280659785744 0.0224175205826 0)
(-0.277233147252 0.0250470845435 0)
(-0.273505524711 0.0276246547515 0)
(-0.269485966759 0.0301586843087 9.47462705106e-29)
(-0.265182593831 0.0326584116648 -9.5314572158e-29)
(-0.260602253582 0.0351338040957 0)
(-0.255750166509 0.0375953846856 0)
(-0.250629591765 0.0400539222978 0)
(-0.245241554104 0.04251997096 0)
(-0.239584680682 0.0450032584368 0)
(-0.233655200464 0.0475119408095 0)
(-0.227447164121 0.0500517538621 0)
(-0.220952926517 0.052625132701 0)
(-0.214163908845 0.0552303867376 0)
(-0.207071658965 0.0578609980647 0)
(-0.199669128958 0.0605052387671 0)
(-0.191952154315 0.0631460725922 0)
(-0.18392105335 0.0657615012271 0)
(-0.175581774586 0.068325801831 0)
(-0.166947708999 0.0708099251346 0)
(-0.158040173859 0.0731847924987 0)
(-0.148890069275 0.0754215492904 0)
(-0.13953629858 0.0774973222639 0)
(-0.130029595695 0.0793927553958 0)
(-0.120423302238 0.0811048428345 0)
(-0.110786121939 0.082633987177 0)
(-0.101181967644 0.0840054682596 0)
(-0.0916869529367 0.0852621217877 0)
(-0.0823674699427 0.0864575704871 0)
(-0.0732917010904 0.0876772598556 0)
(-0.064527943201 0.0890352908757 0)
(-0.0561126237828 0.0906542109324 0)
(-0.0480821061492 0.0926804167665 0)
(-0.0404487213899 0.0952837692965 0)
(-0.0331201942434 0.0986395039811 0)
(-0.0263556329377 0.102830965868 0)
(-0.0188129313788 0.107827445445 0)
(-0.013115061522 0.112726655394 0)
(-0.00347442688894 0.111957443085 0)
(-0.0164428243005 -0.127082280729 0)
(-0.0369834047066 -0.145162296453 0)
(-0.0609690685922 -0.15683341724 0)
(-0.0811533285818 -0.164714149272 0)
(-0.0996055223894 -0.168639756432 0)
(-0.116084985227 -0.169111134098 0)
(-0.130924606747 -0.166682136604 0)
(-0.144357504817 -0.16199645012 0)
(-0.15660396231 -0.155657081278 0)
(-0.167852253764 -0.148193635461 0)
(-0.178254584573 -0.140041662703 0)
(-0.187928051434 -0.131539869928 0)
(-0.19695831939 -0.122938829476 0)
(-0.20540543079 -0.114415383349 0)
(-0.21331022006 -0.106088467925 0)
(-0.220700198654 -0.0980335805381 0)
(-0.22759428326 -0.0902946694847 0)
(-0.234006184751 -0.082893264741 0)
(-0.239946596225 -0.0758352157661 0)
(-0.245424462488 -0.0691155775547 0)
(-0.250447633931 -0.0627221534825 0)
(-0.255023159655 -0.0566380909676 0)
(-0.259157402938 -0.0508438072669 0)
(-0.262856094181 -0.0453184287007 0)
(-0.266124384933 -0.0400408622516 0)
(-0.268966932416 -0.0349905773986 0)
(-0.271388016586 -0.0301481523855 0)
(-0.273391660092 -0.0254956361986 0)
(-0.274981720249 -0.0210167864307 0)
(-0.276162031625 -0.016697195734 0)
(-0.276936866932 -0.0125241687244 0)
(-0.27731162863 -0.00848628243969 0)
(-0.277292007775 -0.00457359085547 9.01137441586e-29)
(-0.276878701733 -0.000780245718674 -9.14642057494e-29)
(-0.276062248133 0.00289375669705 0)
(-0.274896264973 0.00645046273921 0)
(-0.273354489561 0.00989991187033 0)
(-0.271453278466 0.0132482470991 0)
(-0.269200967292 0.016501229252 0)
(-0.266607660835 0.0196645285253 0)
(-0.263684150363 0.0227440493232 0)
(-0.260441709228 0.0257461926145 0)
(-0.25689184019 0.0286780885969 0)
(-0.253045998305 0.031547795956 0)
(-0.248915263533 0.0343644529266 0)
(-0.244509953976 0.0371383554344 0)
(-0.23983918283 0.0398809296315 0)
(-0.234910377936 0.0426045623674 0)
(-0.229728799029 0.0453222560726 0)
(-0.224297105484 0.0480470820717 0)
(-0.218615041059 0.0507914220741 0)
(-0.212679302467 0.0535660204943 0)
(-0.206483683237 0.0563788633324 0)
(-0.200019567062 0.0592339791641 0)
(-0.193276762656 0.0621303242469 0)
(-0.186244798921 0.0650607012114 0)
(-0.178914474937 0.0680112181509 0)
(-0.171279633122 0.0709610609167 0)
(-0.163339580446 0.0738824130692 0)
(-0.155099592918 0.0767431589261 0)
(-0.146574546759 0.0795048651524 0)
(-0.137787657096 0.0821301906949 0)
(-0.128776046128 0.0845784112926 0)
(-0.119582316169 0.086819350999 0)
(-0.110272248912 0.0888190775513 0)
(-0.100900712256 0.0905725991826 0)
(-0.0915644091116 0.092066643013 0)
(-0.0823262068542 0.093322872266 0)
(-0.0732973128727 0.0943875298912 0)
(-0.0645573394391 0.095312027899 0)
(-0.0561866676763 0.0961814691003 0)
(-0.0482970373683 0.0971296239025 0)
(-0.0409342888123 0.0982933823912 0)
(-0.0341549960008 0.0998335710537 0)
(-0.0280041698776 0.101951517114 0)
(-0.0223466972399 0.104858085077 0)
(-0.0176449614917 0.108738613385 0)
(-0.0121189097424 0.113560513232 0)
(-0.00933875036997 0.1188467282 0)
(-0.00185356234701 0.119171324263 0)
(-0.0149180212537 -0.151661490095 0)
(-0.0344463660619 -0.168346851796 0)
(-0.0571539892713 -0.177957873973 0)
(-0.0761469702805 -0.183705811215 0)
(-0.0936073602811 -0.18563970582 0)
(-0.109147913305 -0.184341121792 0)
(-0.123115073143 -0.180389153746 0)
(-0.1357195881 -0.174416780897 0)
(-0.147181090549 -0.166999665913 0)
(-0.15768623186 -0.158632386021 0)
(-0.167385973761 -0.149713157696 0)
(-0.176395514121 -0.140545946829 0)
(-0.184798640364 -0.131352065381 0)
(-0.192654194828 -0.122285792055 0)
(-0.200002757114 -0.113449967092 0)
(-0.206872383846 -0.104909362449 0)
(-0.213282930193 -0.096701160243 0)
(-0.219248969363 -0.0888427540065 0)
(-0.224781589224 -0.0813374398347 0)
(-0.229889414434 -0.0741785848094 0)
(-0.234579163578 -0.0673527384352 0)
(-0.238855969177 -0.0608420065034 0)
(-0.242723603701 -0.0546258884768 0)
(-0.246184689284 -0.0486827012379 0)
(-0.249240924807 -0.0429906669384 0)
(-0.251893340591 -0.0375287186718 0)
(-0.254142564964 -0.0322770652062 0)
(-0.255989047798 -0.0272175611104 0)
(-0.257433228835 -0.0223339452033 0)
(-0.258475835747 -0.0176119656677 0)
(-0.25911871504 -0.0130392112787 0)
(-0.259365373207 -0.00860446921439 0)
(-0.25921786717 -0.00429784124317 0)
(-0.258669552376 -0.000114708994638 0)
(-0.257730118419 0.00393949891776 0)
(-0.256426092876 0.00786769591863 0)
(-0.254742807585 0.0116833435433 0)
(-0.252694420066 0.0153894950837 0)
(-0.250289865171 0.0189904326273 0)
(-0.247539850514 0.0224907835339 0)
(-0.244456053547 0.0258957039514 0)
(-0.241050945031 0.0292110926742 0)
(-0.237337566032 0.0324438400423 0)
(-0.233329260562 0.0356020759703 0)
(-0.229039332319 0.0386953883362 0)
(-0.22448060668 0.0417349748873 0)
(-0.219664893373 0.0447336806981 0)
(-0.214602367002 0.0477058644976 0)
(-0.209300905276 0.0506670420834 0)
(-0.203765448559 0.0536332643956 0)
(-0.197997478951 0.0566201901939 0)
(-0.191994688163 0.0596419099024 0)
(-0.185750970088 0.0627094839603 0)
(-0.179256924123 0.0658292786174 0)
(-0.172500670952 0.0690015702203 0)
(-0.165469466492 0.0722187902178 0)
(-0.158151647969 0.0754648073566 0)
(-0.150538305142 0.0787149009655 0)
(-0.142628103085 0.0819337183879 0)
(-0.134424430874 0.085083087282 0)
(-0.125945023908 0.0881117120802 0)
(-0.117212311588 0.0909744793071 0)
(-0.108274540061 0.0936132909247 0)
(-0.0991696702588 0.095992854187 0)
(-0.0899933813141 0.0980557977658 0)
(-0.0807793515661 0.0997985105394 0)
(-0.0716857419774 0.101189294306 0)
(-0.0627404249503 0.102242457066 0)