/*--------------------------------*- C++ -*----------------------------------*\
| =========                 |                                                 |
| \\      /  F ield         | OpenFOAM: The Open Source CFD Toolbox           |
|  \\    /   O peration     | Version:  v1806                                 |
|   \\  /    A nd           | Web:      www.OpenFOAM.com                      |
|    \\/     M anipulation  |                                                 |
\*---------------------------------------------------------------------------*/
FoamFile
{
    version     2.0;
    format      ascii;
    class       volVectorField;
    location    "800";
    object      Ua;
}
// * * * * * * * * * * * * * * * * * * * * * * * * * * * * * * * * * * * * * //

dimensions      [0 1 -1 0 0 0 0];


internalField   nonuniform List<vector> 
6400
(
(-0.734152870685 1.37701544003 0)
(-4.91705179743 5.63432307655 0)
(-8.16024925753 8.51559261243 0)
(-10.3976705781 6.49655906915 0)
(-11.7034027739 4.26850737484 0)
(-11.9654931272 -3.96771593023 0)
(-13.6801836805 -7.83006232032 0)
(-14.752493803 -11.4496270588 0)
(-15.5324222739 -15.2023059551 0)
(-16.1737921248 -19.0543634331 0)
(-16.7161183421 -22.9973746088 0)
(-17.1719808417 -27.0136323911 0)
(-17.5532024858 -31.083854326 0)
(-17.8719038381 -35.1921020991 0)
(-18.1383552976 -39.3258427111 0)
(-18.3607086045 -43.4749411441 0)
(-18.5455746158 -47.6311348223 0)
(-18.6984606133 -51.7878691343 0)
(-18.8239666728 -55.9401903605 0)
(-18.9258994471 -60.0846167288 0)
(-19.0073847598 -64.2190070887 0)
(-19.0709820602 -68.3424483737 0)
(-19.1187878447 -72.4551627506 0)
(-19.1525234806 -76.5584317643 0)
(-19.1736087958 -80.654535791 0)
(-19.1832237318 -84.7467093544 0)
(-19.1823607151 -88.8391134126 0)
(-19.1718671482 -92.9368279766 0)
(-19.1524884973 -97.0458639095 0)
(-19.1248939137 -101.173218783 0)
(-19.0897721293 -105.326963647 0)
(-19.0478317693 -109.516582928 0)
(-19.0003784516 -113.753402715 0)
(-18.9483795176 -118.051965409 0)
(-18.893215663 -122.425877088 0)
(-18.8175578044 -126.870876122 0)
(-18.6951279973 -131.297722028 0)
(-18.5238441219 -135.508448117 0)
(-18.3213985414 -139.266224272 0)
(-18.1013021353 -142.535602834 0)
(-17.8720259485 -145.297022118 0)
(-17.6374067988 -147.538279958 0)
(-17.3992244101 -149.251599208 0)
(-17.1587652425 -150.432926707 0)
(-16.9172108733 -151.081695557 0)
(-16.675625341 -151.200575247 0)
(-16.4349608992 -150.795265639 0)
(-16.1961162374 -149.874392479 0)
(-15.9599915083 -148.449487526 0)
(-15.7275221933 -146.535017766 0)
(-15.4997007036 -144.148449151 0)
(-15.2775939576 -141.310338205 0)
(-15.0623575756 -138.044446146 0)
(-14.8552432465 -134.377859577 0)
(-14.6575952852 -130.341095641 0)
(-14.4708323942 -125.96815834 0)
(-14.2964114079 -121.296508115 0)
(-14.1357704095 -116.366899564 0)
(-13.9902505218 -111.223044525 0)
(-13.8609974792 -105.911060185 0)
(-13.7488466936 -100.478675486 0)
(-13.6541979212 -94.9741830531 0)
(-13.5768864617 -89.4451463841 0)
(-13.5160613936 -83.936892996 0)
(-13.4700723226 -78.4908420598 0)
(-13.4363850395 -73.1427405837 0)
(-13.4114863539 -67.920855673 0)
(-13.3908803053 -62.8442650689 0)
(-13.3688975782 -57.9211360973 0)
(-13.3390145396 -53.1475467758 0)
(-13.2928726225 -48.5056596336 0)
(-13.2227159989 -43.9648164509 0)
(-13.1151748961 -39.476924414 0)
(-12.9682027392 -34.9911856044 0)
(-12.7482112733 -30.4231816209 0)
(-12.502544497 -25.7515389915 0)
(-12.0355420669 -20.7346098858 0)
(-11.6887764589 -15.5770435278 0)
(-9.4600933685 -8.30740629428 0)
(-7.58402112818 -1.18041186713 0)
(-2.6663048732 -2.98671684608 0)
(-2.3783076376 -5.24619408124 0)
(-4.7420242726 -9.1150806731 0)
(-6.87394435955 -7.43496244418 0)
(-9.48463877407 -5.01738972076 0)
(-11.890206556 -2.09299557338 0)
(-13.8078566046 0.495184629427 0)
(-15.5328343988 2.85514977991 0)
(-17.1687856573 5.17674125035 0)
(-18.7228630094 7.53076269753 0)
(-20.1837059611 9.94024751049 0)
(-21.5435283461 12.4142198904 0)
(-22.8009175271 14.9561739218 0)
(-23.9587463492 17.5659338472 0)
(-25.0219049934 20.241171688 0)
(-25.9960638893 22.9786470228 0)
(-26.8871510009 25.7748833123 0)
(-27.7010775247 28.6264778673 0)
(-28.4435366533 31.5302833239 0)
(-29.1198647752 34.48355035 0)
(-29.7349708528 37.4840486928 0)
(-30.2933165438 40.5301640457 0)
(-30.7989254035 43.6209780283 0)
(-31.2554056952 46.7563333732 0)
(-31.6659793673 49.9368913742 0)
(-32.0335139216 53.1641818993 0)
(-32.3605527616 56.4406532741 0)
(-32.6493501986 59.7697205737 0)
(-32.9018896772 63.1558281949 0)
(-33.1199458796 66.6045001859 0)
(-33.3050086101 70.1224656815 0)
(-33.4585537744 73.7175987961 0)
(-33.5813283592 77.3993511085 0)
(-33.6766888451 81.1772642627 0)
(-33.7504342941 85.0629477503 0)
(-33.846076248 89.0554221631 0)
(-33.9679556797 92.8831063909 0)
(-34.0797318683 96.386032537 0)
(-34.1450670177 99.4075341264 0)
(-34.1553330737 101.948626358 0)
(-34.11019328 104.008648478 0)
(-34.0091708489 105.587955395 0)
(-33.8507689924 106.689493533 0)
(-33.6332169777 107.318951926 0)
(-33.3547842498 107.484643037 0)
(-33.0137583534 107.19747093 0)
(-32.6084029725 106.470928221 0)
(-32.1369805175 105.321065054 0)
(-31.5978083732 103.766437227 0)
(-30.9893224449 101.828062698 0)
(-30.3101457588 99.529395636 0)
(-29.5591695393 96.8963176609 0)
(-28.7356523831 93.9571295695 0)
(-27.8393405869 90.7425252302 0)
(-26.8706104746 87.2855155975 0)
(-25.8306311503 83.6212720487 0)
(-24.7215425989 79.7868501796 0)
(-23.5466392568 75.8207653401 0)
(-22.3105445543 71.7623940801 0)
(-21.0193574243 67.6511964052 0)
(-19.6807493373 63.5257654286 0)
(-18.3039902803 59.4227367059 0)
(-16.8998845634 55.3756021911 0)
(-15.4806065512 51.4134935943 0)
(-14.0594287251 47.5600048233 0)
(-12.6503667662 43.8321263724 0)
(-11.2677224408 40.2393644698 0)
(-9.92565968459 36.7830944232 0)
(-8.63755732711 33.456290952 0)
(-7.41594116336 30.2435436106 0)
(-6.27091942544 27.1220800012 0)
(-5.21279616923 24.0624282817 0)
(-4.24344668214 21.0339053477 0)
(-3.37894993659 18.001707099 0)
(-2.58546208039 14.9620409688 0)
(-1.96300301565 11.8855131579 0)
(-1.21591431159 8.99532954124 0)
(-1.3121576652 6.14424454261 0)
(1.32347321497 6.42163381906 0)
(-3.61459443857 7.41728080352 0)
(-6.64831502297 -7.07902993805 0)
(-5.45014996115 -9.12430250713 0)
(-6.73429864459 -5.58264198149 -2.01472294919e-28)
(-6.59942954176 -3.97768374634 1.27090149401e-28)
(-6.9233910129 -3.0846144947 1.33001319427e-28)
(-7.64057099987 -2.99117312071 -1.08933342873e-28)
(-8.57905884129 -3.26959419947 1.6443683532e-28)
(-9.64440653157 -3.66407932928 -1.4628439448e-28)
(-10.7381062029 -4.10229060377 0)
(-11.7870386795 -4.58651934746 0)
(-12.7542254958 -5.13429446348 0)
(-13.6262467592 -5.75983967742 0)
(-14.4010493818 -6.47269544729 0)
(-15.0821242193 -7.27922674584 0)
(-15.6757526244 -8.18332938251 0)
(-16.1893298056 -9.18677945654 0)
(-16.6303639864 -10.2896865663 0)
(-17.0059745048 -11.4910109918 0)
(-17.3226714004 -12.7890191648 0)
(-17.5862712987 -14.1816410254 0)
(-17.8018861082 -15.6667492323 0)
(-17.9739556524 -17.2423844729 0)
(-18.1063039277 -18.9069406451 0)
(-18.2022047706 -20.6593192672 0)
(-18.2644485828 -22.4990601099 0)
(-18.2954069295 -24.4264550437 0)
(-18.2970916739 -26.4426545729 0)
(-18.2712129093 -28.549763797 0)
(-18.2192190873 -30.7509674207 0)
(-18.1423668226 -33.0505973838 -2.79315594225e-27)
(-18.0416720241 -35.4544331027 2.79092772309e-27)
(-17.9181349713 -37.9694486952 0)
(-17.7717225867 -40.6053242499 0)
(-17.6014640871 -43.3711660187 0)
(-17.3930468578 -46.2862729848 0)
(-17.1286118197 -49.236838437 0)
(-16.8568694543 -51.8311267671 0)
(-16.6122103821 -54.024903536 0)
(-16.4024649658 -55.8203456639 0)
(-16.2227686863 -57.2144807124 0)
(-16.0702011937 -58.2098691808 0)
(-15.9448081825 -58.8146573229 0)
(-15.8473684136 -59.0407501918 0)
(-15.7785101038 -58.9030946613 0)
(-15.7386197569 -58.4194570904 0)
(-15.7277792533 -57.6101445826 0)
(-15.7456217854 -56.4976358162 0)
(-15.7911877108 -55.1062206349 0)
(-15.8628106569 -53.4616920526 0)
(-15.9580218004 -51.5910898707 0)
(-16.0734616927 -49.5224842054 0)
(-16.2047995746 -47.284785921 0)
(-16.3466655215 -44.9075651363 0)
(-16.4926021886 -42.4208521007 0)
(-16.6350448491 -39.8548904401 0)
(-16.7653408652 -37.2398138067 0)
(-16.8738218182 -34.6052235721 0)
(-16.9499421486 -31.979657598 0)
(-16.9824962173 -29.389956843 0)
(-16.9599210805 -26.8605558252 0)
(-16.8706837402 -24.4127401783 0)
(-16.7037416117 -22.0639291402 0)
(-16.4490506353 -19.8270477364 0)
(-16.0980879675 -17.7100539883 0)
(-15.6443363902 -15.7156772637 0)
(-15.083703998 -13.8414196559 0)
(-14.4147784932 -12.0798387956 0)
(-13.6390357331 -10.4191857786 0)
(-12.7605822466 -8.84435526635 0)
(-11.7865175989 -7.33852108425 0)
(-10.724942033 -5.88476807132 0)
(-9.58871517709 -4.4704074461 0)
(-8.38241172327 -3.08740832279 0)
(-7.13491589511 -1.74892527376 0)
(-5.80194045437 -0.463529869483 0)
(-4.5487826454 0.668760177218 0)
(-2.92993219824 1.7792980988 0)
(-2.55734649032 2.43634666282 0)
(2.37011715846 5.86781673849 0)
(-5.19976570178 7.8604213665 0)
(-6.45394233899 -11.4797349878 0)
(-8.43963663223 -4.35598738729 0)
(-5.84721190923 -3.11900418811 0)
(-4.67348589502 -4.12645919933 0)
(-5.49776161344 -4.6768972965 0)
(-6.83184085356 -4.84290325381 0)
(-8.2147001049 -4.77647401402 0)
(-9.57613422761 -4.51172013786 0)
(-10.8588641621 -4.098215856 0)
(-12.0264700972 -3.59263766563 0)
(-13.0760482732 -3.03423967261 0)
(-14.0194060406 -2.4440661482 0)
(-14.8700692819 -1.83164462822 0)
(-15.6402864554 -1.19983934056 0)
(-16.340902724 -0.547562428826 0)
(-16.9812289415 0.128552585188 0)
(-17.5689507348 0.833018199566 0)
(-18.1102713582 1.57075213962 0)
(-18.6101748977 2.34664145342 0)
(-19.0726804593 3.16532490399 0)
(-19.5010495287 4.03111850438 0)
(-19.8979529101 4.94803034161 0)
(-20.2656066197 5.9198298899 0)
(-20.6058808724 6.95015032602 0)
(-20.9203866609 8.04261036009 0)
(-21.2105414507 9.20094702994 0)
(-21.4776252015 10.4291563648 0)
(-21.7228075438 11.7316369821 0)
(-21.9472098174 13.1133471143 0)
(-22.1518161672 14.5799525687 0)
(-22.3377508873 16.1380334699 0)
(-22.505414085 17.7951966878 0)
(-22.656940365 19.5605801144 0)
(-22.7904718105 21.4449360037 0)
(-22.9225424691 23.4638105062 0)
(-23.0302075576 25.3695487265 0)
(-23.0765771606 26.9815725889 0)
(-23.0635693125 28.2929029266 0)
(-22.9996659958 29.2943676788 0)
(-22.8851672893 29.9869901735 0)
(-22.7185077593 30.3802084874 0)
(-22.5001597606 30.4887780991 0)
(-22.2319095634 30.3315535092 0)
(-21.9158845402 29.9307575211 0)
(-21.5544542169 29.3111083468 0)
(-21.1504153629 28.4989408795 5.39709124897e-27)
(-20.7070952339 27.5214484766 -5.44761504936e-27)
(-20.2283749055 26.4060437759 0)
(-19.7186920962 25.1798143355 0)
(-19.1830334735 23.8690663842 0)
(-18.6269024633 22.4989543292 0)
(-18.0562517075 21.0931854761 0)
(-17.4773741994 19.6737819718 0)
(-16.8967480164 18.2608784695 0)
(-16.3208294887 16.8725361958 0)
(-15.7557917494 15.5245590997 0)
(-15.2072106504 14.2303077919 0)
(-14.6797074828 13.0005179587 3.5205271228e-27)
(-14.1765676145 11.8431431709 -3.60932063821e-27)
(-13.6993643691 10.7632513782 0)
(-13.2476266921 9.76300999047 0)
(-12.8185951108 8.84179161207 0)
(-12.4071083506 7.99642735645 0)
(-12.0056604352 7.22161721671 0)
(-11.6046387727 6.51049942696 0)
(-11.1927714408 5.85535533342 0)
(-10.7576886775 5.24845017553 0)
(-10.2867639652 4.68292744022 0)
(-9.76764165102 4.15391842316 0)
(-9.18989478759 3.65948208364 0)
(-8.54372198508 3.20241474667 0)
(-7.8267867359 2.79009541904 0)
(-7.02811205908 2.44029787987 0)
(-6.17573849464 2.16919106772 0)
(-5.20104911249 2.02828425307 0)
(-4.33659157707 1.98999448231 0)
(-2.93907891382 2.29727935666 0)
(-3.26516293254 2.47388294663 0)
(2.90201010676 6.00053142415 0)
(-7.10289284249 7.45750739278 0)
(13.7721346305 -21.7132599428 0)
(-4.75753853548 -4.12308449321 0)
(-2.42691796356 -4.15421150913 0)
(-2.91106940218 -5.72004369092 0)
(-5.21852609814 -6.18838893683 0)
(-7.1016417069 -6.20076164902 0)
(-8.55018760113 -6.0011428823 0)
(-9.7910243674 -5.64946396253 0)
(-10.865524657 -5.22156326144 0)
(-11.7861182662 -4.78352402483 0)
(-12.5826170283 -4.37355452136 0)
(-13.2842472265 -4.01010345689 0)
(-13.9111163782 -3.70119306397 0)
(-14.4763767635 -3.4494000308 0)
(-14.9891187896 -3.25450310833 0)
(-15.4557340845 -3.1150712694 0)
(-15.8806225124 -3.02937352006 0)
(-16.266779455 -2.99584137827 0)
(-16.6162832864 -3.01327684632 0)
(-16.9306363432 -3.08092907746 0)
(-17.210979189 -3.19850655781 0)
(-17.4582226592 -3.36616364234 0)
(-17.6731299614 -3.5844833203 0)
(-17.8563670835 -3.85446901317 0)
(-18.0085315941 -4.1775502299 0)
(-18.1301691954 -4.55560610331 0)
(-18.2217783267 -4.99100413328 0)
(-18.2838193039 -5.48666444424 0)
(-18.3166917454 -6.04612226094 0)
(-18.320784625 -6.67366953408 0)
(-18.2963100371 -7.37433435303 -3.9415029889e-27)
(-18.243713257 -8.15437238105 3.95648588731e-27)
(-18.1623657882 -9.02025730269 0)
(-18.0535835196 -9.98208449401 0)
(-17.9116140485 -11.0362655948 0)
(-17.7632303959 -11.9500612067 0)
(-17.6249684934 -12.670373964 0)
(-17.4999708096 -13.181257896 0)
(-17.3898201903 -13.4816674735 0)
(-17.2934022663 -13.5785897081 0)
(-17.2078202678 -13.4832490997 0)
(-17.130319078 -13.2111026444 0)
(-17.0584341151 -12.7814547886 0)
(-16.989435338 -12.2162347687 0)
(-16.9201183117 -11.5387130102 0)
(-16.8468830372 -10.7724426354 0)
(-16.7658343475 -9.94038674591 0)
(-16.6728500044 -9.06419735889 0)
(-16.5636626476 -8.16365744757 0)
(-16.4339805431 -7.25629319496 0)
(-16.2796431107 -6.3571458439 0)
(-16.0968013723 -5.4786804895 0)
(-15.8821156566 -4.63080724016 0)
(-15.6329616154 -3.82098872393 0)
(-15.3476307631 -3.05441169741 0)
(-15.0255060782 -2.33420340233 0)
(-14.667188074 -1.66168094696 0)
(-14.2745436842 -1.03662625036 0)
(-13.8506503114 -0.457584901344 0)
(-13.3996131164 0.0778126516168 0)
(-12.9262442982 0.572510863063 0)
(-12.4356117758 1.02967942924 0)
(-11.9324829085 1.45236806349 0)
(-11.4207178197 1.84318542457 0)
(-10.9026650769 2.20402483985 0)
(-10.3786723317 2.53584559925 0)
(-9.84668849727 2.8385419176 0)
(-9.30228308867 3.11084280466 0)
(-8.73842793599 3.35038683999 0)
(-8.14701532615 3.55359251105 0)
(-7.51687377635 3.71653892122 0)
(-6.8430162813 3.83378626876 0)
(-6.10636532235 3.90487646503 0)
(-5.33914022036 3.92232145282 0)
(-4.4471273065 3.9190853976 0)
(-3.74322034559 3.84697157145 0)
(-2.37134343395 3.98298006248 0)
(-3.33966423018 3.78881595758 0)
(4.07226552216 7.13156494736 0)
(-9.0092195573 7.62381531397 0)
(25.3905356034 -20.6826626465 0)
(-7.76270311897 -3.2103977327 0)
(-2.10210673197 -6.42387597839 0)
(-3.43824667704 -8.02810025599 0)
(-6.25311356744 -8.10211478536 0)
(-7.95463650716 -7.79210722669 0)
(-9.08621415909 -7.28982247665 0)
(-10.0235132776 -6.67252548217 0)
(-10.8211485112 -6.03002797903 0)
(-11.5036585959 -5.41505367766 0)
(-12.1086238296 -4.84669690773 0)
(-12.664173637 -4.32847236061 0)
(-13.1851931414 -3.85752716925 0)
(-13.6789497805 -3.42813133293 0)
(-14.1490633837 -3.03347045461 0)
(-14.5971343671 -2.66669333203 0)
(-15.0235345135 -2.321388051 0)
(-15.4279722658 -1.99171640944 0)
(-15.8098900675 -1.6724030918 0)
(-16.1686975166 -1.35867352625 0)
(-16.5038876589 -1.04617421636 0)
(-16.8150875064 -0.730888552129 0)
(-17.1020752724 -0.409055217604 0)
(-17.3647810388 -0.077090663692 0)
(-17.6032797239 0.268484989632 0)
(-17.8177817463 0.631122545717 0)
(-18.0086236605 1.01431970553 0)
(-18.1762623223 1.4217079626 0)
(-18.3212654882 1.85713791914 0)
(-18.444323769 2.32481501871 0)
(-18.546213332 2.82935835108 0)
(-18.6279644288 3.3761768385 0)
(-18.6905668629 3.97107293873 0)
(-18.7362799592 4.62224521469 0)
(-18.763202725 5.30870730405 0)
(-18.7536573727 5.89039031842 0)
(-18.7035815325 6.35416597837 0)
(-18.6141058456 6.69258451609 0)
(-18.4877521807 6.90404108692 0)
(-18.3270692971 6.99278172212 0)
(-18.1343261551 6.96897533579 0)
(-17.9121334105 6.84713835076 0)
(-17.6637201466 6.64424849463 0)
(-17.3926786556 6.37836992787 0)
(-17.1026776596 6.06761211417 0)
(-16.7973181166 5.72922251554 0)
(-16.4800302683 5.37883709383 0)
(-16.1539439489 5.02995030672 0)
(-15.8217458386 4.69361219228 0)
(-15.4855513385 4.3783253088 0)
(-15.1468037371 4.0901088305 0)
(-14.806206761 3.83269602667 0)
(-14.4636985847 3.60783138987 0)
(-14.1184769719 3.41563299205 0)
(-13.7690835752 3.25498952417 0)
(-13.4135510496 3.12396454368 0)
(-13.0496101341 3.02018565694 0)
(-12.6749448042 2.94119869184 0)
(-12.2874725133 2.88477040153 0)
(-11.8856151708 2.849124257 0)
(-11.4685163458 2.83309911375 0)
(-11.0361582228 2.83621900195 0)
(-10.5893319193 2.8586755194 0)
(-10.1294417335 2.90121967142 0)
(-9.65812111303 2.96498471334 0)
(-9.17674031588 3.05123064694 0)
(-8.68573493277 3.1610764147 0)
(-8.18418142604 3.29511480269 0)
(-7.6688250785 3.45310354107 0)
(-7.1351182305 3.63322154732 0)
(-6.57369289598 3.83213822236 0)
(-5.9811020065 4.04220089381 0)
(-5.33288864983 4.25655867397 0)
(-4.66680381089 4.4526490821 0)
(-3.85445939431 4.64299513955 0)
(-3.2895410003 4.73674146209 0)
(-1.86203214018 5.00219449801 0)
(-3.44841240607 4.76613124564 0)
(5.49007257631 8.28327425398 0)
(-11.1820455309 7.98728307269 0)
(36.953859881 -20.4635785043 0)
(-13.1675635758 -4.2784310285 0)
(-2.31792126384 -9.38212057475 0)
(-4.37193483844 -10.1029994826 0)
(-7.11815444123 -9.54379114951 0)
(-8.32411261155 -8.86125928107 0)
(-9.06446206464 -8.09509446289 0)
(-9.71000304991 -7.31357977799 0)
(-10.2780045557 -6.58826401372 0)
(-10.786976503 -5.94175888956 0)
(-11.2673273772 -5.37167457315 2.07270073258e-27)
(-11.7362951581 -4.86985835626 -2.04402678076e-27)
(-12.1991108943 -4.42745076612 0)
(-12.6556900073 -4.03589298709 0)
(-13.1039704742 -3.68756473986 0)
(-13.541055544 -3.37612869565 0)
(-13.9637555925 -3.09652616172 0)
(-14.3689571659 -2.84480854288 0)
(-14.7538436637 -2.61794833628 0)
(-15.1159893777 -2.41367701738 0)
(-15.4533747692 -2.23035374214 0)
(-15.7643631475 -2.06686243741 0)
(-16.0476617649 -1.92253444669 0)
(-16.3022787582 -1.79709407407 0)
(-16.5274814113 -1.690623037 0)
(-16.7227585325 -1.60354110786 0)
(-16.8877879281 -1.53659977301 0)
(-17.0224086346 -1.49088936992 0)
(-17.1266002967 -1.46785481394 0)
(-17.2004571589 -1.46933212195 0)
(-17.2442004113 -1.49757757843 0)
(-17.2580635391 -1.55537430729 4.47140010504e-27)
(-17.2425671176 -1.64605498358 -4.51090668037e-27)
(-17.1976744002 -1.77389515938 0)
(-17.127396408 -1.9099201911 0)
(-17.0440671135 -1.99199832043 0)
(-16.9503437248 -2.01121977102 0)
(-16.8471020395 -1.96373595757 0)
(-16.7348990997 -1.85094382713 0)
(-16.6135782566 -1.67864797672 0)
(-16.4820367719 -1.45555412671 0)
(-16.3386333964 -1.19203813431 0)
(-16.1816522305 -0.899266483973 0)
(-16.0094663194 -0.588346153405 0)
(-15.8205645975 -0.269515780107 0)
(-15.613619268 0.0484622372738 0)
(-15.3875880177 0.35865133427 0)
(-15.1417941824 0.656061822798 0)
(-14.8759666548 0.93758507921 0)
(-14.5902455958 1.20177896935 0)
(-14.2851577752 1.44854599825 0)
(-13.9615610302 1.67875174332 0)
(-13.6205596457 1.89382966497 0)
(-13.2633976561 2.0954139041 0)
(-12.8913415286 2.28503322805 0)
(-12.5055673075 2.4638919986 0)
(-12.1070697966 2.63275391294 0)
(-11.6966122103 2.79193520204 0)
(-11.2747312362 2.94140287608 0)
(-10.8418057518 3.08096085453 0)
(-10.3981816408 3.21050269403 0)
(-9.94433187728 3.33029031819 0)
(-9.48100421497 3.44122726764 0)
(-9.00931566789 3.54507045125 0)
(-8.53070902648 3.64457009442 0)
(-8.04680242228 3.74344736899 0)
(-7.55894290582 3.84631532571 0)
(-7.06792975803 3.95831113037 0)
(-6.57285659682 4.08474440693 0)
(-6.07219801289 4.23016000564 0)
(-5.5589986175 4.39816757259 0)
(-5.03350909086 4.58782550766 0)
(-4.46850410492 4.79847279988 0)
(-3.91188705524 5.00982712994 0)
(-3.1991657322 5.23648759178 0)
(-2.8151083127 5.36987935337 0)
(-1.35024068408 5.69641632013 0)
(-3.68339217872 5.40713282435 0)
(7.0220676557 9.21496234319 0)
(-13.6102465783 8.25170374606 0)
(48.9220447782 -19.9017674046 0)
(-19.7545378848 -6.24481577693 0)
(-1.86150168213 -12.5030095136 0)
(-4.96137885919 -11.891384265 0)
(-7.38157154661 -10.7218617272 0)
(-8.10047398163 -9.71678354851 0)
(-8.5802291121 -8.74593360039 0)
(-9.06387649427 -7.85763040936 0)
(-9.52021480961 -7.08607513501 0)
(-9.96103088852 -6.42092130898 0)
(-10.4067571303 -5.84204198015 0)
(-10.8640119327 -5.33246504793 0)
(-11.3308189913 -4.87851474508 0)
(-11.8025050208 -4.46896742931 0)
(-12.2737823458 -4.09482673525 0)
(-12.7393582464 -3.7490753068 0)
(-13.1942639542 -3.42628512319 0)
(-13.6340681799 -3.1222253975 0)
(-14.0549705909 -2.83354513136 0)
(-14.4538068647 -2.55753390781 0)
(-14.8280063887 -2.29194439339 0)
(-15.1755305295 -2.03486136788 0)
(-15.494806785 -1.78460606983 0)
(-15.7846666055 -1.53966583635 0)
(-16.0442904184 -1.29864106308 0)
(-16.2731617993 -1.06020194187 0)
(-16.4710290267 -0.823050610277 0)
(-16.6378792167 -0.585882800487 0)
(-16.7739071414 -0.347348243167 0)
(-16.879527655 -0.106004473075 0)
(-16.9552894359 0.13974310609 0)
(-17.002087055 0.391686311617 0)
(-17.0205409093 0.652010816867 0)
(-17.0125064811 0.923034974362 0)
(-16.9756885097 1.18302109388 0)
(-16.9076655772 1.40906539976 0)
(-16.8084766145 1.59772245393 0)
(-16.6797489458 1.74878038405 0)
(-16.5238212382 1.86473898863 0)
(-16.3432439618 1.95007420728 0)
(-16.1404859835 2.01071814158 0)
(-15.9179063726 2.05346088655 0)
(-15.6778075695 2.08518894169 0)
(-15.4223730088 2.11220710471 0)
(-15.1535221178 2.13980527112 4.05066434567e-27)
(-14.872795894 2.1720531457 -4.07496213536e-27)
(-14.5813082601 2.21176564004 0)
(-14.2797420777 2.26060181189 0)
(-13.968374623 2.3192621266 0)
(-13.6471324764 2.38773791413 0)
(-13.3156748425 2.46556617512 0)
(-12.9734965872 2.55205181943 0)
(-12.6200379638 2.64643274562 0)
(-12.2547873024 2.74797551962 0)
(-11.8773641598 2.8560015888 0)
(-11.4875730065 2.9698551794 0)
(-11.0854225571 3.08883298327 0)
(-10.6711136505 3.21210275923 0)
(-10.245005852 3.33864371605 0)
(-9.80758474833 3.46723031746 0)
(-9.3594471276 3.59650128304 0)
(-8.90132853939 3.72510338861 0)
(-8.43416032192 3.85193836786 0)
(-7.95916248667 3.97643858244 0)
(-7.47787854669 4.09891699 0)
(-6.9922084702 4.2207554605 0)
(-6.50414316537 4.34467218103 0)
(-6.01572511585 4.47452708949 0)
(-5.5279227204 4.61515009251 0)
(-5.0420525299 4.7713654196 0)
(-4.55392870324 4.94780992895 0)
(-4.06911336505 5.14470695167 0)
(-3.55999917515 5.36272276824 0)
(-3.09053979167 5.5806760594 0)
(-2.46167236016 5.81489905522 0)
(-2.26821569419 5.94264107737 0)
(-0.758666641314 6.27673184374 0)
(-3.9897645018 5.87014246067 0)
(8.72680799871 9.97363366873 0)
(-16.2321491801 8.39908660965 0)
(61.887803894 -19.5243782561 0)
(-27.4556597531 -9.02748385764 0)
(-0.590813068945 -15.4351336405 0)
(-5.30275959211 -13.1898235479 0)
(-7.19841970728 -11.5458276877 0)
(-7.53442342023 -10.3047929887 0)
(-7.88957206486 -9.20747431288 0)
(-8.30792247321 -8.27838599144 0)
(-8.72726686459 -7.5074234903 0)
(-9.15773925713 -6.85752528327 0)
(-9.61094798053 -6.29753220517 0)
(-10.0858551847 -5.80545338256 0)
(-10.5763174764 -5.36506748715 0)
(-11.0752899265 -4.96417640738 0)
(-11.5758262279 -4.59381171495 0)
(-12.0713886807 -4.24753516547 0)
(-12.5560756089 -3.92077683323 0)
(-13.0247469683 -3.61029874346 0)
(-13.4730462867 -3.31379900547 0)
(-13.8973590252 -3.02963103058 0)
(-14.2947414417 -2.75660921816 0)
(-14.6628397629 -2.49387867892 0)
(-14.9998106343 -2.24083128953 0)
(-15.3042485672 -1.99705419778 0)
(-15.5751232737 -1.76230025567 0)
(-15.8117268581 -1.53647196988 0)
(-16.0136314738 -1.31961562472 0)
(-16.1806541888 -1.11191762702 0)
(-16.3128320774 -0.913713584253 0)
(-16.4103993544 -0.725480341328 0)
(-16.4737781135 -0.547881976576 0)
(-16.5035706739 -0.381695915821 0)
(-16.5005985445 -0.228046893983 5.07642900584e-27)
(-16.4661540424 -0.0878285737022 -5.15250700634e-27)
(-16.4025466584 0.0539233687253 0)
(-16.312934825 0.204649125218 0)
(-16.1984754274 0.365981627207 0)
(-16.0601858939 0.537762959943 0)
(-15.8990505243 0.718160120912 0)
(-15.7159170254 0.904165033955 0)
(-15.5114822858 1.09228477348 0)
(-15.2863962875 1.27918432685 0)
(-15.0414065917 1.46210480434 0)
(-14.7774389347 1.63907464097 0)
(-14.495592382 1.80898708508 0)
(-14.1970934219 1.97156866926 0)
(-13.883239511 2.12724734355 0)
(-13.5553326435 2.2769525409 0)
(-13.2146020608 2.42189284916 0)
(-12.8621272458 2.56334974527 0)
(-12.4987768287 2.70251140174 0)
(-12.1251754224 2.84035854747 0)
(-11.7417047375 2.9776044732 0)
(-11.3485396613 3.11468373272 0)
(-10.9457141933 3.25177647099 0)
(-10.5332057273 3.38885458034 0)
(-10.1110216242 3.52573258038 0)
(-9.67927239334 3.66211010822 0)
(-9.2382145277 3.79760924112 0)
(-8.78826949092 3.93177965636 0)
(-8.3300129535 4.0641455562 0)
(-7.86417751674 4.19423861189 0)
(-7.39165012471 4.32175240021 0)
(-6.91353346872 4.44667379872 0)
(-6.43117455989 4.56966390733 0)
(-5.94627705598 4.69214183071 0)
(-5.46076914578 4.81686616223 0)
(-4.97692924062 4.9476598639 0)
(-4.49645075842 5.08957237592 0)
(-4.02237265158 5.24767020723 0)
(-3.5522528489 5.42703694665 0)
(-3.09675839733 5.62787420251 0)
(-2.62801417357 5.85017707722 0)
(-2.22938353093 6.07000688763 0)
(-1.66686050031 6.30328860282 0)
(-1.66193826679 6.41146414683 0)
(-0.0787907707798 6.73252116965 0)
(-4.35624005482 6.17858294303 0)
(10.6857995142 10.60142897 0)
(-19.0541146764 8.45656751467 0)
(75.83893453 -19.2698389731 0)
(-36.1980837827 -12.2851747729 0)
(1.64588279679 -17.879194145 0)
(-5.49589850544 -14.0098567639 0)
(-6.70103473028 -12.1415417386 0)
(-6.81852961837 -10.7638195192 0)
(-7.15821404567 -9.6114765627 0)
(-7.57004880924 -8.68687820502 0)
(-7.99406761443 -7.93971133238 0)
(-8.44319218732 -7.31637203018 0)
(-8.92249659876 -6.78014599574 0)
(-9.42659039151 -6.30614117304 0)
(-9.9474930712 -5.87656100435 0)
(-10.4771591982 -5.47872839417 0)
(-11.0079063132 -5.10388612931 0)
(-11.5326575612 -4.74614896444 0)
(-12.0451390662 -4.4016371339 0)
(-12.5399582171 -4.06782521486 0)
(-13.0125866591 -3.74307728066 0)
(-13.4592939073 -3.4263255453 0)
(-13.8770610422 -3.116855945 0)
(-14.2634902504 -2.81417094472 0)
(-14.6167192174 -2.51790599538 0)
(-14.935344836 -2.22778111207 0)
(-15.2183586384 -1.94357441976 0)
(-15.4650926605 -1.66510701246 0)
(-15.6751773611 -1.39223536327 0)
(-15.8485053662 -1.12484035917 0)
(-15.9852086348 -0.862828103292 0)
(-16.0856358448 -0.606097425599 0)
(-16.1503400638 -0.354581138979 0)
(-16.1801087234 -0.108095055358 0)
(-16.1758257257 0.13332950276 0)
(-16.1389185038 0.370155766835 0)
(-16.0684778589 0.594955294505 0)
(-15.9655292026 0.806023272355 0)
(-15.8313694343 1.0033594676 0)
(-15.6677241744 1.18794029626 0)
(-15.4765569343 1.36135558006 0)
(-15.2599138774 1.52547448904 0)
(-15.0197987461 1.6821925736 0)
(-14.758109358 1.83325289741 0)
(-14.4766282722 1.98011854455 0)
(-14.1770254408 2.12390955777 0)
(-13.8608487311 2.26542608618 0)
(-13.529512467 2.40524054144 0)
(-13.1842968569 2.54381285338 0)
(-12.8263545116 2.68158817315 0)
(-12.4567136961 2.81905509954 0)
(-12.076273737 2.95675661571 0)
(-11.6857948356 3.09525628755 0)
(-11.2858876278 3.23507038785 0)
(-10.8770094397 3.37658337541 0)
(-10.4594738207 3.51996880612 0)
(-10.033479624 3.66513058843 0)
(-9.59916034269 3.81168386087 0)
(-9.15664910166 3.95897582017 0)
(-8.7061519273 4.10613796444 0)
(-8.24800184541 4.25219471769 0)
(-7.78270931049 4.39610559795 0)
(-7.31095981732 4.53692118278 0)
(-6.83362703782 4.67379859102 0)
(-6.35174508743 4.80623487414 0)
(-5.8665195925 4.93401366668 0)
(-5.37934604591 5.05781540924 0)
(-4.89185703786 5.17888607037 0)
(-4.40598645527 5.30013119286 0)
(-3.92396504938 5.42538607268 0)
(-3.44774901719 5.560053097 0)
(-2.98159544128 5.70922173852 0)
(-2.52396639039 5.87851697388 0)
(-2.09044838723 6.06807712146 0)
(-1.65326218739 6.27593700053 0)
(-1.31780955706 6.47476205855 0)
(-0.812041848025 6.68058786138 0)
(-0.997666757845 6.74750647251 0)
(0.680346962253 7.01546029012 0)
(-4.81213261467 6.33208174076 0)
(13.0139748194 11.1022783543 0)
(-22.100071523 8.39647856863 0)
(90.6018819172 -19.2002173056 0)
(-45.8735352483 -15.8335116908 0)
(4.88235967394 -19.728836143 0)
(-5.73181591953 -14.4663053621 0)
(-6.03668443829 -12.6167117108 0)
(-6.1053864221 -11.1577677746 0)
(-6.48130363737 -9.99501195998 0)
(-6.9051453815 -9.09816402405 0)
(-7.34701861602 -8.3850856817 0)
(-7.82152439173 -7.79403440987 0)
(-8.32864369152 -7.28528545829 0)
(-8.8606547317 -6.83182978985 0)
(-9.40870605946 -6.41485316042 0)
(-9.96418032873 -6.0216355014 0)
(-10.5189649127 -5.6439576075 0)
(-11.0657125781 -5.27675662015 0)
(-11.5980090429 -4.91708729153 0)
(-12.1104063912 -4.56337062382 0)
(-12.5983722031 -4.21487086724 0)
(-13.0582010914 -3.87134530316 0)
(-13.4869142321 -3.53282122198 0)
(-13.8821601835 -3.19946289137 0)
(-14.2421242897 -2.8714989419 0)
(-14.5654495658 -2.54918817914 0)
(-14.8511709707 -2.23280812536 0)
(-15.0986593722 -1.92265508393 0)
(-15.3075810802 -1.61905137897 0)
(-15.4778536433 -1.3223483039 0)
(-15.6096392282 -1.03294571196 0)
(-15.7032712957 -0.751264601002 0)
(-15.7593611296 -0.477844150005 0)
(-15.778485482 -0.213110945335 0)
(-15.7619592902 0.0419550663146 0)
(-15.7102408314 0.288229944044 0)
(-15.6250368081 0.529111478242 0)
(-15.5073509657 0.764892165704 0)
(-15.3583630038 0.995413598366 0)
(-15.179404918 1.22012458857 0)
(-14.9719225767 1.43824353762 0)
(-14.7374596141 1.64895664667 0)
(-14.4776461706 1.85161678774 0)
(-14.1941917762 2.0458920934 0)
(-13.888882752 2.23182656052 0)
(-13.5635682884 2.40981726041 0)
(-13.2201222877 2.58054597175 0)
(-12.8603875743 2.74490101975 0)
(-12.4861182068 2.90390604666 0)
(-12.0989297703 3.05865999668 0)
(-11.7002602868 3.21028774728 0)
(-11.2913430136 3.35989632524 0)
(-10.8731926631 3.50852989481 0)
(-10.4466057834 3.65711605373 0)
(-10.0121760702 3.80640035926 0)
(-9.57032218717 3.95688166358 0)
(-9.12133060761 4.10874479008 0)
(-8.66540813738 4.26182557862 0)
(-8.20274372266 4.41560890188 0)
(-7.73358158617 4.56924131332 0)
(-7.25826102775 4.7216936673 0)
(-6.77728854079 4.8717223603 0)
(-6.29133672596 5.01817959253 0)
(-5.8012661413 5.15988248736 0)
(-5.30813137574 5.29615078581 0)