/*--------------------------------*- C++ -*----------------------------------*\
| =========                 |                                                 |
| \\      /  F ield         | OpenFOAM: The Open Source CFD Toolbox           |
|  \\    /   O peration     | Version:  v1806                                 |
|   \\  /    A nd           | Web:      www.OpenFOAM.com                      |
|    \\/     M anipulation  |                                                 |
\*---------------------------------------------------------------------------*/
FoamFile
{
    version     2.0;
    format      ascii;
    class       volVectorField;
    location    "800";
    object      Ua;
}
// * * * * * * * * * * * * * * * * * * * * * * * * * * * * * * * * * * * * * //

dimensions      [0 1 -1 0 0 0 0];


internalField   nonuniform List<vector> 
6400
(
(-0.856048460398 -0.375723256929 0)
(-1.70473669154 0.442342547334 0)
(-2.92319301703 1.649318685 0)
(-4.14429532342 1.56622083331 0)
(-5.17266875863 0.906523684004 0)
(-6.61976929041 -3.38491087861 0)
(-7.5430782228 -5.19174889265 0)
(-8.28581136736 -7.12895665685 0)
(-8.90571052711 -9.25858338699 0)
(-9.40648002369 -11.522480456 0)
(-9.80899978481 -13.8753954746 0)
(-10.1376037316 -16.28973051 0)
(-10.4096875758 -18.748046225 0)
(-10.6361556912 -21.2375183617 0)
(-10.8246054782 -23.7478647893 0)
(-10.981156213 -26.2708564901 0)
(-11.1109473578 -28.8000891052 0)
(-11.2182190479 -31.3306999438 0)
(-11.3064095499 -33.8590956623 0)
(-11.3783000062 -36.3827510207 0)
(-11.4361490241 -38.9000694697 0)
(-11.4817960815 -41.410280714 0)
(-11.5167410017 -43.9133593762 0)
(-11.5422090739 -46.4099603392 0)
(-11.5592058535 -48.9013692386 0)
(-11.5685627578 -51.3894671485 0)
(-11.5709749743 -53.8767085664 0)
(-11.5670317446 -56.3661137848 0)
(-11.5572461257 -58.8612742218 0)
(-11.5420730327 -61.3663859298 0)
(-11.5219718286 -63.8863030255 0)
(-11.4974061282 -66.4267514389 0)
(-11.4692140202 -68.9946013164 0)
(-11.4379839157 -71.5987045848 0)
(-11.4045479085 -74.2471900738 0)
(-11.3576081748 -76.9364146158 0)
(-11.2810190638 -79.6093606654 0)
(-11.1753404773 -82.1394361813 0)
(-11.051408773 -84.3925392761 0)
(-10.9171593159 -86.3479849724 0)
(-10.7775048216 -87.9942315349 0)
(-10.6346675453 -89.3240044713 0)
(-10.4896880172 -90.3326314028 0)
(-10.3433271938 -91.017645576 0)
(-10.1962876449 -91.3786514122 0)
(-10.0492061371 -91.4171859075 0)
(-9.90265909337 -91.1366102402 0)
(-9.75719867418 -90.5420644275 0)
(-9.61338656533 -89.6404743292 0)
(-9.47181508504 -88.440589944 0)
(-9.33312093024 -86.9530459631 0)
(-9.19799617731 -85.1904397743 0)
(-9.06719667297 -83.1674221802 0)
(-8.94154546314 -80.9007892454 0)
(-8.82192868742 -78.4095595703 0)
(-8.70928138058 -75.7150142426 0)
(-8.60456120065 -72.8406740573 0)
(-8.50870858944 -69.8121844529 0)
(-8.42259317241 -66.6570808852 0)
(-8.34694751824 -63.4044097302 0)
(-8.28229108691 -60.0841897978 0)
(-8.22884880438 -56.7267093524 0)
(-8.18646913854 -53.3616690873 0)
(-8.15454859984 -50.0171949614 0)
(-8.13196384447 -46.7187563275 0)
(-8.117023718 -43.488039473 0)
(-8.10741726257 -40.3418106487 0)
(-8.10021858666 -37.2908575869 0)
(-8.09178157884 -34.3389460717 0)
(-8.07794719725 -31.482127915 0)
(-8.05347730891 -28.7077080586 0)
(-8.01358145717 -25.9950374239 0)
(-7.95024022619 -23.3130296149 0)
(-7.86271378592 -20.629462109 0)
(-7.73157974211 -17.8931338387 0)
(-7.58845670864 -15.0928867468 0)
(-7.31652148598 -12.0906434818 0)
(-7.14444015129 -9.02947297532 0)
(-5.82412693971 -4.7447878433 0)
(-4.81708542955 -0.347576717978 0)
(-1.21746762578 -1.68001472187 0)
(-1.70150046957 -1.24147548332 0)
(-3.53876224423 -2.62610021455 0)
(-4.95780551567 -3.88873022172 0)
(-6.383984375 -3.21993752114 0)
(-7.65232690389 -1.59076524709 0)
(-8.690858551 -0.072026236289 0)
(-9.70547620348 1.36726318928 0)
(-10.7115838083 2.78936959085 0)
(-11.6732971819 4.22766939126 0)
(-12.5721714526 5.69822641017 0)
(-13.4055949417 7.20785403762 0)
(-14.1754545934 8.75857233036 0)
(-14.8840429375 10.3500395478 0)
(-15.5340304199 11.9808188877 0)
(-16.1287356366 13.6489902764 0)
(-16.6718947234 15.3524602672 0)
(-17.1673022177 17.0891496236 0)
(-17.6185866408 18.8571250241 0)
(-18.0291212558 20.6546937477 0)
(-18.4019986352 22.4804755572 0)
(-18.7400264654 24.3334589717 0)
(-19.0457335042 26.2130490022 0)
(-19.32138319 28.1191069308 0)
(-19.5689923641 30.0519857312 0)
(-19.7903523425 32.0125610913 0)
(-19.9870487881 34.002262625 0)
(-20.1604842351 36.023104016 0)
(-20.3118897269 38.0777227987 0)
(-20.4423642753 40.1694103177 0)
(-20.5528264594 42.3021941779 0)
(-20.6441856905 44.4807868993 0)
(-20.7168931865 46.7108964613 0)
(-20.7730721262 48.998170393 0)
(-20.816473328 51.3497238352 0)
(-20.8745185514 53.763955236 0)
(-20.947251274 56.0674459229 0)
(-21.0116043797 58.1676498554 0)
(-21.0463676999 59.9767817853 0)
(-21.0467813531 61.4951648822 0)
(-21.0127418208 62.7222324742 0)
(-20.9439690584 63.658089004 0)
(-20.839568324 64.304395378 0)
(-20.6984822384 64.6644538084 0)
(-20.5196701885 64.7431485154 0)
(-20.3020920103 64.5469398454 0)
(-20.0446839402 64.0838751742 0)
(-19.7463742079 63.3635850071 0)
(-19.406119106 62.3972683538 0)
(-19.0229441998 61.1976844007 0)
(-18.5959899338 59.7791541493 0)
(-18.1245662985 58.1575705503 0)
(-17.6082200717 56.3504048317 0)
(-17.0468163126 54.3766961625 0)
(-16.44063436 52.2570029575 0)
(-15.790476715 50.0132957063 0)
(-15.0977868441 47.6687666337 0)
(-14.3647686716 45.2475389397 0)
(-13.5944975672 42.7742608533 0)
(-12.7910097713 40.2735838372 0)
(-11.9593558567 37.7695325588 0)
(-11.1056042262 35.2847909932 0)
(-10.2367828368 32.8399369479 0)
(-9.3607539842 30.4526691541 0)
(-8.48601943347 28.1370720946 0)
(-7.62147344805 25.9029642865 0)
(-6.77609543274 23.7553747826 0)
(-5.95866677824 21.6941793184 0)
(-5.17736341609 19.7139722482 0)
(-4.43970228746 17.8041280291 0)
(-3.75160811163 15.9494960312 0)
(-3.1189867822 14.1309455492 0)
(-2.54263269236 12.3288057529 0)
(-2.03180488738 10.521614153 0)
(-1.56615966246 8.707266847 0)
(-1.205852303 6.8702711983 0)
(-0.775753993363 5.14493986121 0)
(-0.861810021121 3.45074666999 0)
(0.69744198485 3.67364137634 0)
(-2.12471911849 4.72669047306 0)
(-2.96802737335 -3.71888113637 0)
(-4.57563898223 -4.37424026057 0)
(-4.99299819994 -3.21936999436 -3.29227003701e-29)
(-4.87960621122 -2.52828140132 2.08539538849e-29)
(-4.98249983598 -2.02917132675 4.96549682038e-29)
(-5.26592686243 -1.93423463844 -4.04933084432e-29)
(-5.71695661561 -2.03214199578 7.60884989783e-29)
(-6.29130082119 -2.20544603256 -6.74723845254e-29)
(-6.91478569254 -2.42253449474 0)
(-7.52551765943 -2.68183198566 0)
(-8.09191545471 -2.9875308169 0)
(-8.6033372614 -3.34456087787 0)
(-9.05805684753 -3.75756236041 0)
(-9.45763418834 -4.23004671921 0)
(-9.80523458109 -4.76402337173 0)
(-10.1049363723 -5.36017609706 0)
(-10.3611456519 -6.01823895772 0)
(-10.5781587949 -6.73732892496 0)
(-10.7599334048 -7.51619405595 0)
(-10.9100091779 -8.35340649458 0)
(-11.031500419 -9.24752184046 0)
(-11.1271161067 -10.1972117279 0)
(-11.1991913088 -11.201372728 0)
(-11.2497244551 -12.2592166389 0)
(-11.2804167209 -13.3703470989 0)
(-11.2927111345 -14.5348269055 0)
(-11.2878283348 -15.7532417988 0)
(-11.2668021902 -17.026758042 0)
(-11.2305025501 -18.3571992116 0)
(-11.1796818483 -19.7470859263 -1.60844795215e-27)
(-11.1149327633 -21.1998252014 1.60729541328e-27)
(-11.0368597736 -22.7195425026 0)
(-10.94533876 -24.3120468321 0)
(-10.839798937 -25.9827107777 0)
(-10.71060142 -27.7433351209 0)
(-10.5478741415 -29.5161536096 0)
(-10.3837819073 -31.0651870786 0)
(-10.2372059645 -32.3743813136 0)
(-10.1119129818 -33.4443060204 0)
(-10.0049419507 -34.2729100759 0)
(-9.91463474006 -34.8615687801 0)
(-9.84101240182 -35.2149848653 0)
(-9.78448583878 -35.3401105819 0)
(-9.74537029043 -35.2457433061 0)
(-9.72383620394 -34.9424046322 0)
(-9.71986662287 -34.442182867 0)
(-9.73316766949 -33.7585240351 0)
(-9.76308028649 -32.9060295529 0)
(-9.80850945356 -31.9002851153 0)
(-9.86786333835 -30.7577183895 0)
(-9.93899639819 -29.495477378 0)
(-10.0191570275 -28.131319675 0)
(-10.1049434943 -26.683499829 0)
(-10.1922730515 -25.1706375437 0)
(-10.2763703289 -23.6115479046 0)
(-10.3517828274 -22.0250159792 0)
(-10.4124324561 -20.4295037438 0)
(-10.4517122754 -18.8427857717 0)
(-10.4626358371 -17.2815213639 0)
(-10.4380430541 -15.7607830761 0)
(-10.3708604058 -14.2935728874 0)
(-10.254406186 -12.8903655405 0)
(-10.0827220352 -11.5587216905 0)
(-9.85090686699 -10.3030119549 0)
(-9.55541768382 -9.12428461266 0)
(-9.19431781465 -8.02030492707 0)
(-8.76741147097 -6.98577375699 0)
(-8.27633572442 -6.01277170087 0)
(-7.72436139251 -5.0913932958 0)
(-7.11654939287 -4.21079894079 0)
(-6.45850971778 -3.36032226284 0)
(-5.75855518696 -2.53222305264 0)
(-5.01989498573 -1.72224361639 0)
(-4.25988479655 -0.939775525106 0)
(-3.4522103385 -0.193046138995 0)
(-2.69504574811 0.453899400883 0)
(-1.72391032634 1.07332253034 0)
(-1.50819734133 1.40543134552 0)
(1.43141966175 3.43593448207 0)
(-3.01523365857 4.94008580958 0)
(-1.34672944051 -8.04437602539 0)
(-5.18408329948 -2.22833002077 0)
(-3.6044511491 -1.69009475661 0)
(-2.99475383879 -2.48734035473 0)
(-3.56941123437 -2.91731782074 0)
(-4.37811826707 -3.05508939051 0)
(-5.19815247016 -3.02355694238 0)
(-6.01099406593 -2.85919782582 0)
(-6.78141884774 -2.60182925831 0)
(-7.48259279886 -2.2894967383 0)
(-8.11025318186 -1.94627815534 0)
(-8.67147580935 -1.58477498374 0)
(-9.17528955684 -1.21096593574 0)
(-9.62980483784 -0.826804018103 0)
(-10.0419607407 -0.431614757145 0)
(-10.4176233442 -0.0231728923212 0)
(-10.7616449195 0.40148100324 0)
(-11.0779548836 0.845528807534 0)
(-11.3697000257 1.31210238914 0)
(-11.6393983309 1.80415644469 0)
(-11.8890769201 2.32442504432 0)
(-12.1203843554 2.8754305116 0)
(-12.3346792902 3.45952643024 0)
(-12.5330999679 4.07896192592 0)
(-12.7166192504 4.73595811189 0)
(-12.88608645 5.43279104279 0)
(-13.0422630324 6.17187900353 0)
(-13.1858395303 6.95587189354 0)
(-13.3174751219 7.78774705006 0)
(-13.4377393142 8.67090413738 0)
(-13.5472913429 9.60928102835 0)
(-13.6463236947 10.6074529943 0)
(-13.7361647184 11.6708432407 0)
(-13.8155957023 12.8060515908 0)
(-13.8951907546 14.0220609347 0)
(-13.9586152998 15.1566230255 0)
(-13.9848576445 16.1166757911 0)
(-13.9759747478 16.8970166918 0)
(-13.9369166378 17.4921144353 0)
(-13.8676796779 17.9025964284 0)
(-13.7673086188 18.133987321 0)
(-13.6360888331 18.194950501 0)
(-13.4750687681 18.0966173165 0)
(-13.2854968175 17.852160624 0)
(-13.0687746739 17.4762780252 0)
(-12.8265687 16.9846761839 3.11995472853e-27)
(-12.5608707564 16.3936274963 -3.14934937411e-27)
(-12.2740130027 15.7195951736 0)
(-11.9686711286 14.9789115471 0)
(-11.647860682 14.1875051966 0)
(-11.3149175382 13.3606747706 0)
(-10.9734555041 12.5129024274 0)
(-10.6272969696 11.6576956415 0)
(-10.2803730017 10.8074446393 0)
(-9.93658954578 9.97328475368 0)
(-9.59965805632 9.16495703673 0)
(-9.27289258752 8.39066737769 0)
(-8.95898055149 7.65695187932 1.95465301955e-27)
(-8.65974097788 6.96856399653 -2.00472305719e-27)
(-8.37589075424 6.3284041263 0)
(-8.10684501696 5.73751505427 0)
(-7.8505810893 5.19516348101 0)
(-7.60359296546 4.69902224429 0)
(-7.36095994476 4.24545640019 0)
(-7.11653338026 3.82990841046 0)
(-6.86325354211 3.44736442956 0)
(-6.59353461965 3.09289188494 0)
(-6.29980686588 2.76220685742 0)
(-5.97486091431 2.45235443465 0)
(-5.61284105266 2.16226674542 0)
(-5.2084650409 1.89383358246 0)
(-4.76102859508 1.6517944204 0)
(-4.26478264379 1.44706775761 0)
(-3.73702366463 1.28933162989 0)
(-3.13730444794 1.20845196287 0)
(-2.60404142445 1.18503884026 0)
(-1.75326971521 1.35905332547 0)
(-1.94364904334 1.43673477872 0)
(1.76261580624 3.55297017428 0)
(-4.17439888839 4.69322711016 0)
(9.64977268773 -13.295630872 0)
(-3.43328487138 -2.23967858783 0)
(-1.61223267532 -2.67495082238 0)
(-1.97235001664 -3.69280813949 0)
(-3.42494909039 -3.96019284432 0)
(-4.5599040813 -3.9369282291 0)
(-5.41816659186 -3.77831621896 0)
(-6.15091333146 -3.52760810298 0)
(-6.78332948029 -3.23545428755 0)
(-7.32198424617 -2.9429707907 0)
(-7.78469600712 -2.67250845155 0)
(-8.18955531065 -2.43416181797 0)
(-8.54937662599 -2.23201496034 0)
(-8.87262848066 -2.06709526242 0)
(-9.1650706555 -1.93880788775 0)
(-9.43066630382 -1.84585182804 0)
(-9.67210946561 -1.7867989813 0)
(-9.89121930499 -1.76039403235 0)
(-10.0892397309 -1.76567455736 0)
(-10.2670487066 -1.80200210935 0)
(-10.4252957083 -1.86905654869 0)
(-10.564488994 -1.96681851133 0)
(-10.6850492375 -2.09555138463 0)
(-10.7873413566 -2.25578970309 0)
(-10.871692182 -2.44833693311 0)
(-10.9384002738 -2.67427535131 0)
(-10.9877384737 -2.93498589897 0)
(-11.0199582803 -3.23218509906 0)
(-11.0352768884 -3.56795913309 0)
(-11.0339013588 -3.94485280484 0)
(-11.0159400247 -4.36584113803 -2.23435531682e-27)
(-10.9816003675 -4.83466525576 2.24301859996e-27)
(-10.930503379 -5.35510404726 0)
(-10.8631192667 -5.933366685 0)
(-10.776631094 -6.56309939381 0)
(-10.6883126055 -7.10349966573 0)
(-10.6064958862 -7.52869238934 0)
(-10.5330491465 -7.82922071146 0)
(-10.4689972851 -8.00453008335 0)
(-10.4135923231 -8.058683389 0)
(-10.3650370979 -7.9982555684 0)
(-10.3216521234 -7.83236773407 0)
(-10.2819246677 -7.57244326153 0)
(-10.2441682153 -7.23148042708 0)
(-10.2064043807 -6.82329933599 0)
(-10.1664131347 -6.36192016641 0)
(-10.1217924158 -5.8610472364 0)
(-10.0699988539 -5.33364007586 0)
(-10.0083982948 -4.79157909014 0)
(-9.93434081533 -4.24542979821 0)
(-9.84525766658 -3.70429932878 0)
(-9.73877431163 -3.17577190252 0)
(-9.61283478752 -2.66590933958 0)
(-9.46583148695 -2.17930205005 0)
(-9.29673108281 -1.71915865747 0)
(-9.10518356385 -1.28742445987 0)
(-8.89159803226 -0.884923574447 0)
(-8.65716717816 -0.511522030668 0)
(-8.40382278622 -0.166311477017 0)
(-8.13410896845 0.152188023286 0)
(-7.85096776232 0.445809120502 0)
(-7.55744442319 0.716510462318 0)
(-7.25633243743 0.966153728095 0)
(-6.94979604247 1.19629977181 0)
(-6.63900742309 1.40804037245 0)
(-6.32386867595 1.60187291579 0)
(-6.00280661424 1.77763680485 0)
(-5.67283096338 1.93447213771 0)
(-5.32946371877 2.07089267835 0)
(-4.96769851792 2.18473179742 0)
(-4.58088645949 2.27367237164 0)
(-4.16625630538 2.3345773273 0)
(-3.7129046357 2.36739132074 0)
(-3.24058194408 2.36789957932 0)
(-2.69364448095 2.35598496335 0)
(-2.25941113978 2.30169159669 0)
(-1.42473862544 2.36889748344 0)
(-2.00562855237 2.22581340548 0)
(2.45753164891 4.23779618046 0)
(-5.34008775665 4.78004604014 0)
(16.216660853 -12.2742368019 0)
(-5.10218757503 -1.90632225815 0)
(-1.3269592325 -4.05860303337 0)
(-2.23880925632 -5.01148857161 0)
(-3.9780480477 -5.03677899951 0)
(-4.99959385314 -4.83182262703 0)
(-5.6706729281 -4.5050593086 0)
(-6.22146839404 -4.10747064704 0)
(-6.6848208397 -3.69706590949 0)
(-7.07667929776 -3.30704582574 0)
(-7.42083202225 -2.94904695219 0)
(-7.73511570446 -2.62481365635 0)
(-8.02920007785 -2.33213896266 0)
(-8.30793508374 -2.06709939077 0)
(-8.57372690676 -1.82514318916 0)
(-8.82758929985 -1.60172427843 0)
(-9.0697089069 -1.39261092129 0)
(-9.29984022517 -1.19398288144 0)
(-9.5175666835 -1.00242348702 0)
(-9.72244993118 -0.814870642569 0)
(-9.91410608361 -0.628556625532 0)
(-10.0922404564 -0.44094792822 0)
(-10.2566595161 -0.24968905053 0)
(-10.407270743 -0.0525502845559 0)
(-10.5440768902 0.152621201149 0)
(-10.6671688433 0.367949494902 0)
(-10.7767181349 0.595578006997 0)
(-10.8729730138 0.837723495502 0)
(-10.9562487842 1.09672900333 0)
(-11.0269421083 1.3751463866 0)
(-11.0854844713 1.67577654658 0)
(-11.1325114924 2.0018929603 0)
(-11.1684980806 2.3570456049 0)
(-11.1951029301 2.74620836382 0)
(-11.2102621178 3.15135311391 0)
(-11.2037914578 3.49443651818 0)
(-11.1735584325 3.76767610798 0)
(-11.1203347282 3.9668166883 0)
(-11.0456473699 4.09090171769 0)
(-10.9509714378 4.14243709599 0)
(-10.837611765 4.12745494024 0)
(-10.7071037088 4.05455537932 0)
(-10.5613615757 3.93379244715 0)
(-10.4025132933 3.775871464 0)
(-10.232729677 3.59153714245 0)
(-10.0541405933 3.39103596455 0)
(-9.86877269954 3.18367052457 0)
(-9.67846965768 2.97748278501 0)
(-9.48480449006 2.7790705236 0)
(-9.28900078685 2.59352114411 0)
(-9.09187031561 2.42444417582 0)
(-8.89377098105 2.27408317216 0)
(-8.69459054969 2.14348767877 0)
(-8.4937625443 2.03272549153 0)
(-8.29031963605 1.94111753523 0)
(-8.08298696366 1.86747931362 0)
(-7.87031343896 1.81035546175 0)
(-7.65083297668 1.76823497324 0)
(-7.42324013711 1.73973641436 0)
(-7.18655714039 1.72375216428 0)
(-6.94026305292 1.71954372624 0)
(-6.68435519889 1.72678099993 0)
(-6.41931547513 1.74552394388 0)
(-6.14597071088 1.77614916165 0)
(-5.86524038605 1.81923024789 0)
(-5.57782188344 1.87537943134 0)
(-5.28378235278 1.94507818703 0)
(-4.9823134855 2.02844673264 0)
(-4.67118124949 2.12507514054 0)
(-4.34738453737 2.23358979829 0)
(-4.00513397196 2.35168776109 0)
(-3.64229614737 2.47448151685 0)
(-3.24446308318 2.59762725788 0)
(-2.83456402396 2.70743877648 0)
(-2.33634417279 2.81141906679 0)
(-1.9865006546 2.85421484095 0)
(-1.1174872017 2.9957577133 0)
(-2.0759321594 2.82201334989 0)
(3.30652184337 4.92880195055 0)
(-6.65524295142 4.97879940672 0)
(22.9323385526 -12.2414454869 0)
(-8.31109641803 -2.73727071001 0)
(-1.41529885511 -5.93096890427 0)
(-2.77283424005 -6.32545674694 0)
(-4.45764117283 -5.95582672586 0)
(-5.18142279187 -5.50686111489 0)
(-5.61826789398 -5.00344595863 0)
(-5.99079051708 -4.4937260577 0)
(-6.31154843238 -4.0239611295 0)
(-6.59485162883 -3.60833726127 0)
(-6.86099910983 -3.2448900375 1.099676066e-27)
(-7.1214226124 -2.92772446709 -1.0842221835e-27)
(-7.37981328428 -2.65043429451 0)
(-7.63633411869 -2.40691484654 0)
(-7.88972963452 -2.19180209706 0)
(-8.1381104659 -2.00066725945 0)
(-8.37936260659 -1.82999167417 0)
(-8.61141989215 -1.67704390405 0)
(-8.83241733349 -1.53974248874 0)
(-9.04075248213 -1.41653446568 0)
(-9.23509402535 -1.3062960233 0)
(-9.4143654374 -1.20825542917 0)
(-9.57771819171 -1.12193571232 0)
(-9.72450185942 -1.04711413305 0)
(-9.85423508599 -0.983795129574 0)
(-9.9665794878 -0.932194476677 0)
(-10.061317443 -0.892732588977 0)
(-10.1383329047 -0.866036211694 0)
(-10.1975983987 -0.852947192821 0)
(-10.239156221 -0.854539819323 0)
(-10.2631333368 -0.872145104083 0)
(-10.2696592024 -0.907388130723 2.51005601327e-27)
(-10.2590952133 -0.962269650156 -2.53242522975e-27)
(-10.2314207857 -1.03920359543 0)
(-10.1893448333 -1.1181502768 0)
(-10.1398540609 -1.16522607155 0)
(-10.0845227813 -1.17514468935 0)
(-10.0239041959 -1.14564759669 0)
(-9.95832176755 -1.07760157776 0)
(-9.88764746532 -0.974458605934 0)
(-9.81118736423 -0.841348779586 0)
(-9.72793895417 -0.684373573916 0)
(-9.6368629412 -0.510100875669 0)
(-9.53697285445 -0.325064794216 0)
(-9.42734990248 -0.135287799451 0)
(-9.30718530168 0.054077139661 0)
(-9.17584256375 0.238951995527 0)
(-9.03290549617 0.41640501182 0)
(-8.87820190305 0.584611978899 0)
(-8.71180676506 0.742729343329 0)
(-8.53402683128 0.890703424583 0)
(-8.34536602262 1.02904389155 0)
(-8.14647263898 1.15858898332 0)
(-7.93807267884 1.28028745688 0)
(-7.72089649455 1.39501739171 0)
(-7.4956084922 1.503457601 0)
(-7.26275131412 1.6060215051 0)
(-7.02271656986 1.70285729497 0)
(-6.77575165118 1.79391235116 0)
(-6.52200682467 1.8790514511 0)
(-6.26161676791 1.9582126954 0)
(-5.99480060386 2.0315779634 0)
(-5.72195116664 2.09973136765 0)
(-5.44368322226 2.1637811175 0)
(-5.16079584889 2.22542003333 0)
(-4.87415963654 2.28690357118 0)
(-4.58443234139 2.35096814709 0)
(-4.29188014735 2.42058489358 0)
(-3.99568724591 2.49875112589 0)
(-3.6946194152 2.58791092675 0)
(-3.38422918135 2.68981063418 0)
(-3.06442132138 2.80334481031 0)
(-2.71889472298 2.92754434535 0)
(-2.37651029341 3.04965995047 0)
(-1.93898104455 3.17808172072 0)
(-1.69829986287 3.24654804027 0)
(-0.804280591931 3.42558269325 0)
(-2.21613442596 3.21772548101 0)
(4.22867184651 5.48716068292 0)
(-8.11823936093 5.11934974196 0)
(29.9852573959 -11.848085916 0)
(-12.2178561659 -3.99635746986 0)
(-1.11715205946 -7.83534978661 0)
(-3.11812448839 -7.41120366402 0)
(-4.58854004702 -6.66175080021 0)
(-5.01301613202 -6.00399157986 0)
(-5.28736642651 -5.36815487462 0)
(-5.5565780863 -4.79046624053 0)
(-5.8060118499 -4.29281307311 0)
(-6.04634481424 -3.86808443773 0)
(-6.29153855713 -3.50261629397 0)
(-6.54614539412 -3.18450202418 0)
(-6.80902687419 -2.90399613452 0)
(-7.07716685667 -2.65315046776 0)
(-7.34706704432 -2.42567684 0)
(-7.61520301331 -2.21673365278 0)
(-7.87827563243 -2.02262441877 0)
(-8.13336385788 -1.84050911442 0)
(-8.37798458643 -1.66817308431 0)
(-8.61008880042 -1.50385240812 0)
(-8.82802635244 -1.3461045592 0)
(-9.03049957511 -1.19371413769 0)
(-9.21651565067 -1.04562522313 0)
(-9.38534240318 -0.90089255634 0)
(-9.53646965749 -0.758645490888 0)
(-9.66957729962 -0.618059356518 0)
(-9.78450891118 -0.478331199742 0)
(-9.88125395211 -0.338655814074 0)
(-9.95992747579 -0.198201741339 0)
(-10.0207777965 -0.056083316868 0)
(-10.0641330038 0.0886749428558 0)
(-10.0905362809 0.237161412513 0)
(-10.1003465078 0.390698195114 0)
(-10.0946835392 0.550623797661 0)
(-10.0719671204 0.702565569298 0)
(-10.0309514171 0.834690910118 0)
(-9.97173959602 0.945068577309 0)
(-9.89533039674 1.0336140339 0)
(-9.80311928333 1.10180754307 0)
(-9.69661522758 1.15227992408 0)
(-9.57727346882 1.18851813069 0)
(-9.44648501845 1.21451210225 0)
(-9.30560875951 1.23430372327 0)
(-9.15593090647 1.25158991226 0)
(-8.99857682751 1.26947138674 2.24111939035e-27)
(-8.83444330229 1.29033381656 -2.25447777769e-27)
(-8.66417029199 1.31582789639 0)
(-8.48813892952 1.34692749998 0)
(-8.30648711905 1.38404549438 0)
(-8.11914306873 1.42717994733 0)
(-7.9258760924 1.47606302751 0)
(-7.72635919373 1.53029024321 0)
(-7.52023529218 1.58941548877 0)
(-7.30717848092 1.65300476322 0)
(-7.08694240981 1.72064860282 0)
(-6.85938974277 1.79193998314 0)
(-6.62449993918 1.86643051345 0)
(-6.38235833413 1.94358045754 0)
(-6.13313401122 2.02272531226 0)
(-5.87705981343 2.10307392631 0)
(-5.61442641911 2.18375638862 0)
(-5.34560117084 2.26392586701 0)
(-5.0710695203 2.34290778414 0)
(-4.79148824693 2.42038493529 0)
(-4.5077102287 2.49658080221 0)
(-4.22078548093 2.57239543311 0)
(-3.93179055756 2.64951476527 0)
(-3.64178606111 2.7302575979 0)
(-3.35112704718 2.81746444534 0)
(-3.06029734668 2.91386307053 0)
(-2.76651312503 3.02190958223 0)
(-2.47283597502 3.14113627561 0)
(-2.16261798559 3.2712371613 0)
(-1.87435978516 3.39880004324 0)
(-1.4886163231 3.53310605489 0)
(-1.3637578788 3.59980442315 0)
(-0.44127959675 3.78444391363 0)
(-2.39753070497 3.50511373034 0)
(5.25683441248 5.94101950502 0)
(-9.69725330769 5.18971959508 0)
(37.7237387965 -11.6267294481 0)
(-16.8047296056 -5.75501669 0)
(-0.349108150189 -9.63937025437 0)
(-3.32427000262 -8.22010543995 0)
(-4.4585757738 -7.16860441279 0)
(-4.64570767539 -6.35118936859 0)
(-4.83840375555 -5.62877136213 0)
(-5.0634550345 -5.02212238526 0)
(-5.28881866653 -4.52417479087 0)
(-5.52353667229 -4.11000903699 0)
(-5.77539230939 -3.75810608922 0)
(-6.04363839796 -3.45280137843 0)
(-6.32410486647 -3.18245240464 0)
(-6.61198566111 -2.93839026988 0)
(-6.90256913105 -2.71433399055 0)
(-7.19147879256 -2.50584122484 0)
(-7.47482342625 -2.30980432112 0)
(-7.74926585427 -2.12405248891 0)
(-8.01202018551 -1.94706325102 0)
(-8.26080827586 -1.77776014746 0)
(-8.49380002367 -1.61537414948 0)
(-8.70955110421 -1.45935172225 0)
(-8.90694471889 -1.309296243 0)
(-9.08514015714 -1.16493238843 0)
(-9.24352940575 -1.02608579016 0)
(-9.38170119184 -0.892671990333 0)
(-9.49941291341 -0.764692454181 0)
(-9.59656722796 -0.642231790261 0)
(-9.67319721868 -0.525464800848 0)
(-9.72944983125 -0.414648201298 0)
(-9.76558553897 -0.310161019471 0)
(-9.7819636019 -0.212428842112 0)
(-9.77908743342 -0.12216189046 2.84350689953e-27)
(-9.7577355631 -0.0397356312806 -2.88638501136e-27)
(-9.71935143456 0.0442898365253 0)
(-9.66570770784 0.133564214438 0)
(-9.59746423131 0.229037002439 0)
(-9.51523716253 0.33060214365 0)
(-9.41962551209 0.43718169241 0)
(-9.31114199194 0.547022670692 0)
(-9.19020758197 0.658102315829 0)
(-9.05721720824 0.768501473962 0)
(-8.91262674642 0.876643772423 0)
(-8.75699910384 0.981415036731 0)
(-8.59099913489 1.08220646974 0)
(-8.41536513748 1.17889452044 0)
(-8.23087452033 1.27176193713 0)
(-8.0383033832 1.36137921697 0)
(-7.8383796212 1.44847346549 0)
(-7.63173657018 1.5338071818 0)
(-7.41887672333 1.6180810307 0)
(-7.20015268519 1.70186770904 0)
(-6.97576901274 1.78557808988 0)
(-6.74580500241 1.86945645916 0)
(-6.51025466778 1.95359678403 0)
(-6.26907663803 2.03797043234 0)
(-6.02224342626 2.12245674065 0)
(-5.76978206941 2.20686308322 0)
(-5.51179713331 2.29094327338 0)
(-5.24847846191 2.37440541617 0)
(-4.98009567339 2.45693145449 0)
(-4.70699417872 2.53821763768 0)
(-4.42960556652 2.61804626195 0)
(-4.1484771056 2.69641773451 0)
(-3.86431129845 2.77371345556 0)
(-3.57801776697 2.85083778752 0)
(-3.2906317311 2.92948229207 0)
(-3.00337410297 3.01196364807 0)
(-2.71709096522 3.1012760601 0)
(-2.4333481052 3.20027260061 0)
(-2.15046045236 3.31172180129 0)
(-1.87466767204 3.43501550296 0)
(-1.58923056349 3.56917736103 0)
(-1.3445833614 3.69906093643 0)
(-1.00028792213 3.8336826615 0)
(-0.990680158984 3.88975440159 0)
(-0.0233842828375 4.06688061426 0)
(-2.61566731755 3.70100592322 0)
(6.44200224821 6.31255470932 0)
(-11.396772254 5.20421969922 0)
(46.0724442818 -11.4608466098 0)
(-22.0163962707 -7.78182212188 0)
(0.987847685846 -11.1396145729 0)
(-3.44423982882 -8.72927406993 0)
(-4.14179114564 -7.5209477626 0)
(-4.19056434861 -6.60430089571 0)
(-4.36753011742 -5.8421723975 0)
(-4.58578002306 -5.23807800267 0)
(-4.8145958772 -4.75750496928 0)
(-5.06322624953 -4.3635057541 0)
(-5.33440352221 -4.03000621694 0)
(-5.62405062772 -3.73905163487 0)
(-5.92645795668 -3.47792170527 0)
(-6.23598869565 -3.23772730168 0)
(-6.54740434876 -3.01245300674 0)
(-6.85600924715 -2.79813699658 0)
(-7.15773973316 -2.59221786219 0)
(-7.44917656524 -2.39305844662 0)
(-7.72750301151 -2.19961536483 0)
(-7.99043870494 -2.01121600874 0)
(-8.2361674906 -1.82741286928 0)
(-8.46326834517 -1.64789204911 0)
(-8.67065368715 -1.47241865732 0)
(-8.85751655566 -1.30080594549 0)
(-9.02328721065 -1.13289900256 0)
(-9.16759744633 -0.968566015686 0)
(-9.29025387583 -0.807694326911 0)
(-9.39121395211 -0.650184884989 0)
(-9.47057523634 -0.495953601773 0)
(-9.52855222059 -0.344913259272 0)
(-9.56549602615 -0.196999957985 0)
(-9.58183752848 -0.0520815312347 0)
(-9.57821571608 0.0898290710539 0)
(-9.55516894174 0.228988689092 0)
(-9.51249189393 0.360876498904 0)
(-9.45066164114 0.484785990274 0)
(-9.37047110001 0.60076736324 0)
(-9.27295744866 0.709424011276 0)
(-9.15929345224 0.811698910283 0)
(-9.03069536489 0.908685059456 0)
(-8.88835111358 1.00148488677 0)
(-8.7333860013 1.09111121972 0)
(-8.56685919071 1.17841575049 0)
(-8.389765408 1.26405407077 0)
(-8.20302865326 1.34850082019 0)
(-8.00749490567 1.43210434268 0)
(-7.80393140119 1.5151534913 0)
(-7.59302982135 1.5979329428 0)
(-7.37540717598 1.68075455732 0)
(-7.15160190249 1.76396054938 0)
(-6.92206682684 1.84790030058 0)
(-6.68716232192 1.93288782148 0)
(-6.44715390096 2.01915033859 0)
(-6.20221806881 2.10678214308 0)
(-5.95245922227 2.19571305955 0)
(-5.69793846801 2.28569885185 0)
(-5.43870864616 2.37634149798 0)
(-5.17485532723 2.46711467618 0)
(-4.90652797724 2.55742430604 0)
(-4.633964622 2.64665336561 0)
(-4.35749461957 2.73422435624 0)
(-4.07752983902 2.81965992702 0)
(-3.7945638362 2.90263452977 0)
(-3.50916403145 2.98309089761 0)
(-3.22200667019 3.06138923002 0)
(-2.93391772122 3.13838681294 0)
(-2.64591926012 3.21582082134 0)
(-2.35913596599 3.29609801383 0)
(-2.07462201372 3.38241283359 0)
(-1.79468587852 3.47747776692 0)
(-1.51821393035 3.58477420235 0)
(-1.25473330545 3.70305702529 0)
(-0.987710140837 3.8296847849 0)
(-0.781618762039 3.94762128528 0)
(-0.47304318595 4.06541891052 0)
(-0.580107815808 4.09888157163 0)
(0.438940518668 4.24151984888 0)
(-2.88622427971 3.8034214094 0)
(7.85997203645 6.61344552827 0)
(-13.2282736568 5.13546930357 0)
(54.9259627807 -11.4137904556 0)
(-27.7914773919 -9.98472648971 0)
(2.9144703328 -12.2847780066 0)
(-3.58912546692 -9.01671911675 0)
(-3.72407780097 -7.79381738182 0)
(-3.73836477451 -6.81406168786 0)
(-3.93287204345 -6.04327357456 0)
(-4.15842456501 -5.45895135171 0)
(-4.40092687526 -5.00382748232 0)
(-4.66884650203 -4.63412103307 0)
(-4.96086572115 -4.32108381391 0)
(-5.27100078634 -4.0453056592 0)
(-5.59279776632 -3.79359488828 0)
(-5.9202338125 -3.55727452664 0)
(-6.2478676443 -3.33088403195 0)
(-6.57093938074 -3.11114444707 0)
(-6.88540903168 -2.89619605055 0)
(-7.18792487699 -2.68506743935 0)
(-7.47575392989 -2.47731919513 0)
(-7.74670091286 -2.27281237973 0)
(-7.99902866866 -2.07156532363 0)
(-8.23138596754 -1.87367035601 0)
(-8.44274510272 -1.67924987705 0)
(-8.6323495489 -1.48843683563 0)
(-8.79967168741 -1.30136927038 0)
(-8.94437760179 -1.11819197062 0)
(-9.06630220773 -0.939062115612 0)
(-9.16542222128 -0.764152885178 0)
(-9.24185344387 -0.593665480011 0)
(-9.29580432101 -0.427816551872 0)
(-9.32764808991 -0.266890581405 0)
(-9.33771629964 -0.111121504971 0)
(-9.32681781107 0.0389597211787 0)
(-9.29516393774 0.183954466775 0)
(-9.24378395731 0.325759189856 0)
(-9.1732356105 0.464567281478 0)
(-9.08421265965 0.600293278612 0)
(-8.97751318677 0.732622273537 0)
(-8.85400430226 0.861108559272 0)
(-8.7146104201 0.985291639919 0)
(-8.56030736517 1.10481221029 0)
(-8.3921191173 1.21949802396 0)
(-8.21111652879 1.32939767722 0)
(-8.01840854409 1.43476594458 0)
(-7.8151187341 1.5360234951 0)
(-7.60235158466 1.63371166468 0)
(-7.38115795289 1.72845145469 0)
(-7.1525053106 1.82090875244 0)
(-6.91725419732 1.9117651546 0)
(-6.67614166172 2.00169124315 0)
(-6.42977288128 2.09131806814 0)
(-6.17862132561 2.18120371803 0)
(-5.9230380846 2.27179224166 0)
(-5.66326886891 2.3633749313 0)
(-5.39947787278 2.45605526787 0)
(-5.13177855739 2.54972445109 0)
(-4.86026154855 2.64407897676 0)
(-4.58503503087 2.73861186255 0)
(-4.30624751791 2.83269513242 0)
(-4.02412314165 2.92561675657 0)
(-3.73897287722 3.01667084513 0)
(-3.4511788588 3.10524245323 0)