/*--------------------------------*- C++ -*----------------------------------*\
| =========                 |                                                 |
| \\      /  F ield         | OpenFOAM: The Open Source CFD Toolbox           |
|  \\    /   O peration     | Version:  v1806                                 |
|   \\  /    A nd           | Web:      www.OpenFOAM.com                      |
|    \\/     M anipulation  |                                                 |
\*---------------------------------------------------------------------------*/
FoamFile
{
    version     2.0;
    format      ascii;
    class       volScalarField;
    location    "1000";
    object      p;
}
// * * * * * * * * * * * * * * * * * * * * * * * * * * * * * * * * * * * * * //

dimensions      [0 2 -2 0 0 0 0];


internalField   nonuniform List<scalar> 
6400
(
0.189559338034
0.189316574559
0.188934346932
0.188551552444
0.188401862438
0.188016384116
0.187136186352
0.185656068118
0.183620316247
0.181091543292
0.17815335192
0.174898930398
0.171422385732
0.167812516276
0.164148935619
0.160500133976
0.156922990138
0.153463263624
0.150156668976
0.147030227343
0.144103682555
0.141390847263
0.138900805265
0.136638938649
0.134607776047
0.132807674357
0.131237354534
0.129894315438
0.128775150691
0.127875791415
0.127191690059
0.126717952293
0.12644944995
0.126381026562
0.126507914296
0.126826198561
0.127332453078
0.128020615342
0.128882597351
0.129911883486
0.131102580656
0.132448278903
0.133942505203
0.135578848466
0.137351014291
0.139252840861
0.141278289169
0.143421410438
0.145676290385
0.148036969663
0.150497340829
0.153051024245
0.15569122782
0.158410598488
0.161201076018
0.164053762247
0.16695882018
0.169905417856
0.172881730505
0.175875011676
0.178871738965
0.181857833693
0.184818945918
0.187740787799
0.190609489513
0.193411942856
0.196136086142
0.198771073313
0.201307264392
0.203735962275
0.206048778764
0.208236409355
0.210286497415
0.212180740224
0.213892563406
0.215384956148
0.216599480346
0.217434269617
0.217784526695
0.217760962837
0.189601589282
0.189324562607
0.189060551008
0.188714814454
0.188303348233
0.18796563959
0.187070753152
0.185553683188
0.183469889161
0.180889573133
0.17790259873
0.174605911286
0.171095609595
0.167461127899
0.163781753741
0.160125039945
0.156546607022
0.153090855312
0.14979218956
0.146676460582
0.143762424386
0.14106309838
0.138586952825
0.136338915747
0.134321194157
0.132533928043
0.13097569984
0.129643923917
0.128535140982
0.1276452411
0.126969631105
0.126503333424
0.12624098614
0.12617687487
0.126305520249
0.126623070825
0.127127921533
0.127816336029
0.128681063275
0.12971435789
0.130908558377
0.132256779138
0.133752411608
0.135389028655
0.13716036018
0.139060284643
0.1410828139
0.143222061357
0.145472188976
0.14782732994
0.150281486879
0.152828406871
0.155461438271
0.158173376545
0.160956310292
0.1638014803
0.166699166986
0.169638621233
0.172608053415
0.175594691617
0.178584916004
0.181564469023
0.184518733956
0.187433065247
0.190293145854
0.193085338373
0.195796987042
0.198416615279
0.20093396541
0.203339820239
0.205625485469
0.207781781734
0.20979740113
0.211656642621
0.213336902773
0.214805641717
0.216014594786
0.216892859151
0.217360271723
0.217421160541
0.190088127544
0.189676901291
0.189211372152
0.188824464163
0.188238803898
0.187482447313
0.18628448379
0.18455982191
0.182322422242
0.179632567831
0.176575113586
0.173242562165
0.169726088666
0.166109779604
0.162467507711
0.158861699834
0.155343402614
0.151953144665
0.148722210574
0.145674056411
0.142825694679
0.140188952015
0.137771555715
0.13557803888
0.133610473532
0.131869050599
0.13035252906
0.129058577568
0.127984033293
0.127125102396
0.126477507288
0.126036525314
0.125796831684
0.125752497204
0.125898707076
0.126235276686
0.126758939833
0.127461714894
0.128337008314
0.129378227287
0.130578588803
0.131931422422
0.133430188774
0.135068492511
0.136840092109
0.138738904521
0.140758998024
0.14289456743
0.145139886734
0.147489235893
0.149936800057
0.152476542267
0.155102053439
0.157806387164
0.160581890216
0.16342004288
0.166311324977
0.169245124377
0.172209704064
0.175192241017
0.178178944917
0.181155258293
0.18410613094
0.187016353517
0.189870925004
0.192655422434
0.195356335436
0.197961308036
0.200459234735
0.202840194423
0.205095070767
0.207214747769
0.209188939305
0.211004525486
0.212643025467
0.214077225373
0.215268916953
0.216168842515
0.216706969371
0.216820071445
0.190785987123
0.190266360403
0.189581649996
0.188836039949
0.187884671089
0.186668639348
0.185077190358
0.183058394587
0.180615554455
0.177795854015
0.174671103571
0.171322188704
0.167829554707
0.164267416859
0.160700821211
0.157184606501
0.153763572645
0.150473333531
0.147341489104
0.144388880372
0.141630788332
0.139078005682
0.136737753703
0.13461444243
0.132710285827
0.131025789172
0.129560126935
0.128311431505
0.127277018967
0.126453572741
0.125837253801
0.125423629824
0.125207466887
0.125183192897
0.125347501154
0.125702044341
0.126242618598
0.126959511751
0.127846580825
0.128897219397
0.130104786515
0.131462698962
0.132964472003
0.134603749452
0.136374328833
0.138270179126
0.140285445794
0.142414437125
0.144651586401
0.146991385297
0.149428285693
0.151956569505
0.154570189615
0.157262588855
0.160026508476
0.162853801299
0.165735267228
0.168660529531
0.171617970978
0.174594746017
0.177576879173
0.180549454283
0.183496887657
0.186403272771
0.189252770734
0.192030012419
0.194720487597
0.197310864404
0.199789137962
0.202144721561
0.204368263528
0.206450996864
0.208383937206
0.210156741338
0.211755478293
0.21315951924
0.214340197732
0.215260763988
0.215851764343
0.216015968596
0.191445910705
0.190692557055
0.189712506186
0.188542691328
0.187143668787
0.185480647287
0.183494452573
0.181162910707
0.178497813988
0.175540774797
0.172351525808
0.168997237734
0.165544847161
0.162056231461
0.1585857542
0.155179426308
0.151875068675
0.148703017802
0.145687068935
0.142845470246
0.140191865187
0.137736133757
0.135485115084
0.133443211319
0.131612881521
0.129995036995
0.128589349722
0.127394490379
0.126408324864
0.125628081962
0.125050401473
0.124671100313
0.124485037982
0.124487721068
0.12467879329
0.125057436529
0.125617541067
0.126351303289
0.12725246487
0.128314554818
0.129531055585
0.130895458593
0.132401317845
0.134042297757
0.135812215793
0.137705076921
0.139715094727
0.14183669295
0.144064480845
0.146393196377
0.148817612671
0.151332405694
0.153931984817
0.156610292724
0.159360586331
0.162175215806
0.165045421899
0.167961171538
0.170911054544
0.173882263151
0.176860664708
0.179830979794
0.182777054717
0.18568222176
0.188529722842
0.191303148174
0.193986879337
0.196566538902
0.199029124577
0.201363277523
0.203559378146
0.205608912093
0.207503895782
0.209236240405
0.210795906245
0.212168085212
0.213331575551
0.214259164953
0.214881968293
0.215094374301
0.191679440343
0.190580268921
0.189300107729
0.18774348342
0.185934261568
0.183870723581
0.181534754949
0.178927433746
0.176069415125
0.172999379734
0.169767064679
0.166426664807
0.163031691399
0.159631637306
0.156270241638
0.152984887504
0.149806708245
0.14676107806
0.143868273474
0.14114417808
0.138600960829
0.136247693244
0.134090890934
0.132134975998
0.130382662793
0.128835271722
0.127492976525
0.12635499803
0.125419773396
0.124685105466
0.124148155077
0.123805094096
0.123651110888
0.123682945539
0.123902560441
0.124307092934
0.124888539189
0.125640680197
0.126557251756
0.127631897208
0.128858184596
0.130229655237
0.131739882533
0.13338253326
0.135151427021
0.137040589174
0.139044291233
0.141157071461
0.14337372756
0.145689273494
0.14809885375
0.150597610662
0.153180504508
0.155842092051
0.158576275357
0.161376040034
0.164233208221
0.167138226176
0.170080012318
0.173045901219
0.176021683649
0.1789917771
0.18193949856
0.184847442251
0.187697949584
0.190473595226
0.193157631474
0.195734709468
0.198190842448
0.200513829297
0.2026938077
0.204722397967
0.20659217523
0.208296553922
0.209828195322
0.211176315245
0.212324090103
0.213252686004
0.213894004372
0.214151300233
0.190920256363
0.189655311871
0.188185326198
0.186335329243
0.184209324969
0.181833475434
0.1792257259
0.176407442697
0.173407324661
0.170262339315
0.167014410636
0.163706982538
0.160382148999
0.157078747686
0.153831343191
0.150669862432
0.147619649622
0.144701760251
0.141933374276
0.139328254765
0.136897208053
0.134648519317
0.132588348217
0.130721076369
0.129049603233
0.12757558976
0.126299651874
0.125221514479
0.124340149924
0.12365389562
0.123160411254
0.12285633489
0.122737433593
0.122801406076
0.123051102702
0.123482770667
0.124087253821
0.124859043404
0.125792121499
0.12688028446
0.128117179167
0.129496373066
0.131011428897
0.132655982677
0.134423821678
0.136308957988
0.138305691296
0.14040865252
0.14261281841
0.144913486701
0.147306202496
0.149786628609
0.152350356388
0.154992661817
0.157708218971
0.160490790211
0.163332930159
0.166225721311
0.16915855807
0.172119060703
0.175093067123
0.178064805033
0.18101716459
0.183932088111
0.18679109264
0.189575868075
0.192268523472
0.194852927873
0.197314206249
0.199639205818
0.201817881872
0.203841842633
0.205703767976
0.207397876905
0.208918324538
0.210256693455
0.211397677706
0.212329866564
0.212984415567
0.213283953123
0.18919853842
0.187897996202
0.186344075415
0.184311902987
0.181979889842
0.179395480006
0.176606525842
0.173651451583
0.170566659471
0.167388810313
0.164154411469
0.160898876175
0.157655508901
0.154454783087
0.151323941383
0.148286855995
0.145364073258
0.142572980048
0.139928047244
0.137441117385
0.135121710805
0.132977329572
0.131013743222
0.129235245197
0.127644873131
0.126244589806
0.125035426853
0.1240176025
0.123190626929
0.122553368929
0.122103974929
0.121839636523
0.121756969126
0.121854552193
0.122135162076
0.122594484608
0.123222743682
0.124014938141
0.124965277902
0.126067688729
0.127315871111
0.12870339047
0.130223767548
0.13187057266
0.133637522406
0.135518575227
0.137508019254
0.139600542978
0.141791276828
0.144075792182
0.146450045326
0.148910256112
0.151452712183
0.154073502161
0.156768193389
0.159531464396
0.162356755071
0.165235959967
0.16815911196
0.171114297079
0.174087559589
0.177063097237
0.180023534226
0.182950319139
0.185824259723
0.188626477482
0.191337904052
0.193941970412
0.196423110198
0.198766998978
0.200963538907
0.20300404399
0.204880851241
0.20658846067
0.208121338527
0.209471984751
0.210624203069
0.211572168731
0.212243126752
0.21258483079
0.186724562969
0.18544023213
0.183865073571
0.181743607518
0.179305641497
0.176609249841
0.173725262032
0.170704919103
0.167591265449
0.164421594631
0.161229100124
0.158043719699
0.154892507112
0.151799810116
0.148787361475
0.145874346126
0.143077481558
0.140411131954
0.137887462431
0.135516627761
0.133306982226
0.131265294508
0.129396952867
0.127706149495
0.126196036618
0.124868850767
0.123726009859
0.122768198992
0.12199544593
0.121407115362
0.121001734994
0.120776950017
0.120730559332
0.120862662228
0.121174660243
0.121661432257
0.122313493897
0.123126275958
0.124094179709
0.125211217706
0.126471107711
0.127867379071
0.129393475347
0.131042862221
0.132809141696
0.134686169972
0.136668172447
0.138749845232
0.140926429121
0.14319373883
0.145548130589
0.147986396789
0.150505568774
0.153102624203
0.155774135722
0.158515832196
0.161322177479
0.164186076905
0.167098359555
0.170047791102
0.173020801565
0.176001754182
0.178973220954
0.181916430345
0.184811600877
0.187639904821
0.190380965816
0.193018276675
0.195535873598
0.197917826335
0.200154589061
0.202236849829
0.204156146951
0.205907134185
0.207483436265
0.208876620399
0.210067363767
0.211052061082
0.211750489219
0.212138795048
0.183673740659
0.182433923155
0.180878213925
0.178737107404
0.176272358971
0.17354350242
0.170637464648
0.167613711934
0.164520284672
0.161395398962
0.158270446595
0.155171933833
0.152122772215
0.149143075183
0.146250613152
0.143461065218
0.140788172935
0.138243865271
0.135838390167
0.133580462713
0.131477424718
0.129535404053
0.127759462213
0.126153721515
0.124721466217
0.123465215293
0.12238677522
0.121487295825
0.12076731873
0.120226688808
0.119864233864
0.119677929262
0.119667215316
0.119835461097
0.120179191971
0.120691503965
0.121366878953
0.122200186818
0.123185820942
0.124317791418
0.125589789622
0.126995278246
0.12852759404
0.130180063613
0.131946132194
0.133819503074
0.135794281202
0.137865108918
0.14002727778
0.142276795734
0.144610383638
0.147025395921
0.149519634493
0.152091016261
0.154737213846
0.15745513665
0.160240359391
0.163087030872
0.165986887966
0.168929618581
0.171902222429
0.174889464428
0.177874129571
0.180837687991
0.183759776054
0.186622550022
0.189403918762
0.192088117835
0.194659337898
0.197099332906
0.199401382543
0.201555273091
0.203550267425
0.205381328803
0.207040298023
0.208514983197
0.209780769102
0.21083114116
0.211576090229
0.212022212157
0.18019315072
0.179019112145
0.177513330792
0.175404264265
0.17297199014
0.170271791499
0.167401070389
0.164423477295
0.161390344713
0.158340662809
0.155304946979
0.152307707557
0.149369270974
0.146506954543
0.14373577417
0.141068854994
0.138517680819
0.136092271842
0.133801338047
0.13165242552
0.129652055798
0.127805851515
0.126118641507
0.12459454115
0.123237005805
0.122048857967
0.12103229996
0.120188939041
0.119519807349
0.119025211241
0.118704331982
0.118555568417
0.118579472992
0.118780684365
0.11915444587
0.119692669689
0.120391108962
0.12124472031
0.122247972507
0.123394891208
0.124679136455
0.126094092363
0.127632971281
0.129288935161
0.131055236187
0.132925376176
0.13489327954
0.136953466031
0.139101204442
0.141332628366
0.143644764037
0.146035484653
0.148503371541
0.151047296361
0.15366609348
0.156358004045
0.159119676543
0.161946801239
0.164832033071
0.16776626238
0.170737251717
0.173730457185
0.176729120807
0.179715545039
0.182668422324
0.185571952068
0.188401725889
0.19114426512
0.193785212541
0.196302526484
0.198697347135
0.200957512678
0.203065972169
0.205018227702
0.206803489814
0.208403897693
0.209790355628
0.210947582477
0.211773803929
0.212300071341
0.176420006049
0.175324748325
0.173889665872
0.171849367739
0.169491841845
0.166864811148
0.164071919918
0.161177847889
0.158235743192
0.155284995547
0.1523557094
0.149471291769
0.146650523514
0.143908930361
0.141259654117
0.138713994133
0.136281758476
0.13397151504
0.131790790423
0.129746235625
0.127843762273
0.126088647669
0.124485607331
0.123038835973
0.121752019352
0.120628321731
0.11967036348
0.118880213688
0.118259374993
0.11780860194
0.117527521514
0.117415093412
0.117472558182
0.117704657125
0.118106692943
0.118670093928
0.119390974158
0.1202644035
0.121284915732
0.122446552157
0.123742943077
0.12516739502
0.126712992644
0.128372721409
0.13013961606
0.132006936808
0.133968371317
0.136018247831
0.138151729133
0.140364994761
0.142655299497
0.145020946187
0.147461294736
0.149976147641
0.152565485646
0.155229124279
0.157964509062
0.160769297159
0.1636369328
0.166559831273
0.169526702254
0.172523902345
0.175535120843
0.178543879247
0.181527360164
0.184473303116
0.1873550116
0.190164587258
0.192891520865
0.195506382711
0.198020827156
0.200418253772
0.202674320848
0.204786258784
0.206741341224
0.208518758412
0.210085813303
0.211408661492
0.2123730098
0.213016376873
0.172476112979
0.171464910645
0.170112315728
0.168164751254
0.165910037899
0.163386582399
0.160701116408
0.157917006688
0.15508802508
0.152253488628
0.149443236623
0.14668004962
0.143981790652
0.14136284633
0.138835095368
0.136408552844
0.13409181693
0.131892397164
0.129816965795
0.12787154988
0.126061670466
0.124392432172
0.122868567737
0.121494443931
0.120274036131
0.119210881403
0.11830802754
0.117567995181
0.11699272024
0.116583356424
0.116339993139
0.116262221666
0.116351779813
0.116613093701
0.117041950874
0.11762939435
0.118371723564
0.119264095188
0.120301098072
0.1214767926
0.122784789882
0.124218332311
0.125770388079
0.127433769618
0.129201284827
0.131065925039
0.133021092772
0.135060865107
0.137180210487
0.139375268467
0.141643449031
0.143983325314
0.146395036236
0.14887926613
0.151436949814
0.154069949053
0.156775868079
0.159554944536
0.16240115234
0.165308629844
0.168267076118
0.171263448955
0.174281776542
0.177307126478
0.180315638674
0.183302180952
0.186240137022
0.189125285602
0.191953911397
0.194690207487
0.197337086766
0.199882822611
0.202315740009
0.204628314181
0.206806232209
0.208824382654
0.210642156257
0.212200988709
0.213374260847
0.214179281037
0.168461661184
0.16753464364
0.166269722656
0.164428827838
0.162293686752
0.159892814528
0.157333724158
0.154676803974
0.151975526636
0.149268644515
0.146585677686
0.143948970179
0.141375799917
0.138879808033
0.136472018167
0.134161557075
0.13195618267
0.129862681363
0.127887166881
0.126035295628
0.124312407221
0.122723598675
0.1212737428
0.119967462466
0.118809072282
0.117802502731
0.116951229079
0.116258211207
0.115725781678
0.115355399498
0.115147525792
0.115102522689
0.11522282916
0.115511903875
0.115966097046
0.116576191112
0.117338654892
0.118248717491
0.11930101631
0.120489638697
0.121808195331
0.123249889731
0.124807599407
0.126473983298
0.128241629807
0.130103251847
0.132051925736
0.134081439852
0.136186480423
0.13836305322
0.140608701134
0.142922001037
0.145303876261
0.147755885493
0.150279393706
0.152879181721
0.155551984127
0.158301277366
0.161121218936
0.164007173916
0.166949867401
0.169936097924
0.172951222647
0.175984912559
0.17901393859
0.182041083213
0.185050319333
0.188012236052
0.190926232188
0.193776399416
0.196559825594
0.199271071625
0.201904104549
0.204452629
0.206903214837
0.209228205982
0.211377563958
0.213263091511
0.214738957068
0.215751452234
0.164455669671
0.163609925898
0.162433463882
0.160705818633
0.15869851576
0.156430451292
0.154008291249
0.151488340546
0.148923093454
0.146350279522
0.143798941126
0.141290998536
0.138843285421
0.13646891651
0.134178326361
0.131980042226
0.129881274652
0.127888368486
0.126007136688
0.12424308949
0.122601570098
0.121087810652
0.119706924845
0.118463853631
0.11736327856
0.116409522152
0.115606465498
0.114957478697
0.114465241839
0.114131371755
0.113956502686
0.113942169294
0.114092779067
0.114408760883
0.114886227999
0.115517222958
0.116298135586
0.117224225283
0.118290158148
0.119490054418
0.120817546804
0.122265833228
0.123827737787
0.12549579942
0.127262408114
0.129120013405
0.131061320785
0.133079828825
0.135169861998
0.137327161662
0.139549511053
0.141835083057
0.144185576428
0.146603604948
0.149089972245
0.151653639788
0.154289221159
0.157003462946
0.159790559692
0.162645554083
0.165561230976
0.16852652634
0.171528718194
0.174568301409
0.177626113267
0.180679901309
0.183724800046
0.186744617349
0.189733647903
0.19268497192
0.195597708648
0.198472723643
0.201311357473
0.204113293095
0.206870482621
0.209558154831
0.212122377197
0.214453373774
0.216376863255
0.217654734529
0.160519224315
0.159750060725
0.158659926562
0.157046878815
0.155169547526
0.153038001499
0.150756943665
0.148377936675
0.145952028061
0.143515533987
0.141096826348
0.138717321659
0.136393439321
0.134137878899
0.131960658238
0.129869916951
0.127872548981
0.125974688217
0.124182061083
0.122500217166
0.120934652174
0.119490842235
0.118174211376
0.11699005261
0.115943419144
0.115039007629
0.114281070539
0.113673345903
0.113218813085
0.112919161413
0.112775088077
0.11278956166
0.112969957319
0.113312031578
0.113810073115
0.114459935182
0.115257326143
0.116197431749
0.117274917035
0.118483941794
0.119818186098
0.121270880847
0.122834841546
0.124502533806
0.126266173688
0.128118005039
0.130050289381
0.132056282745
0.134129897741
0.136266372081
0.13846406569
0.140720212495
0.143037202578
0.145419213513
0.1478650509
0.15038897883
0.152982401166
0.155653931906
0.158398820517
0.161212088673
0.16408936158
0.167030976719
0.170023096463
0.173046152221
0.176095119642
0.179153821609
0.182213000285
0.185262825757
0.18829906432
0.191320924779
0.194332809639
0.197342960276
0.200361910857
0.203399005601
0.206456463155
0.209519214637
0.212538784675
0.215397053935
0.217886136238
0.219595442959
0.156698707215
0.156000437393
0.154992598945
0.153491861755
0.151742342112
0.149746343523
0.147605860419
0.145367391976
0.143080242854
0.140779008471
0.138491208898
0.13623764293
0.134034292471
0.131893493387
0.129824960647
0.127836603309
0.125935178629
0.124126792481
0.122417253827
0.120812294209
0.119317670391
0.117939174269
0.116682576594
0.115553528065
0.114557435724
0.113699337263
0.112983810693
0.112414899476
0.11199583118
0.111728437729
0.11161365361
0.111655300774
0.111861331119
0.112227036812
0.112745058511
0.113412101189
0.114223938435
0.115175806311
0.116262418565
0.117478003626
0.118816318331
0.120270667394
0.121833902175
0.123498480276
0.125256444418
0.127099970916
0.129020735298
0.131011846256
0.133066838817
0.135180005986
0.137350919803
0.139575326262
0.141856006067
0.144199383746
0.14660059417
0.149079485102
0.151624165153
0.154243325472
0.156936180053
0.159703839174
0.16254480899
0.165439542406
0.168388560946
0.171376196533
0.174391823371
0.177423092479
0.180460937457
0.183498960315
0.186535710208
0.189575057785
0.19262697864
0.195706966711
0.198834904074
0.202030468435
0.205307579501
0.208662110623
0.212043195797
0.215282893813
0.218113811407
0.220315497827
0.153028534017
0.152395030895
0.151464304058
0.150071164288
0.148444404459
0.146579730855
0.144575950408
0.142474424558
0.140322553916
0.138152991616
0.135992261495
0.133860433109
0.131773011211
0.129741990418
0.127776860311
0.125885414919
0.124074409309
0.122350055969
0.12071836535
0.119185343043
0.117757066239
0.116439668548
0.115239263493
0.114161832245
0.113213094768
0.112398386778
0.111722571105
0.111189948344
0.110803967487
0.110566739413
0.110479716261
0.110547279706
0.110776747235
0.111163776026
0.111699849914
0.112381979964
0.113205976794
0.114167112149
0.115260147861
0.11647939371
0.117818698958
0.119271481281
0.120830653794
0.12248877254
0.124237623665
0.126069591655
0.127975514616
0.129948473861
0.131981850399
0.134068311387
0.136209478148
0.138399204285
0.140639921345
0.142940820188
0.145291840342
0.147717541178
0.150207496102
0.15276778306
0.155412010488
0.158116101844
0.160892236765
0.163726778202
0.166611592637
0.169534113283
0.172482528582
0.175445544339
0.178414469077
0.181384300405
0.184355247019
0.187333700029
0.190332970403
0.193372866478
0.196479012249
0.199676064579
0.202982812914
0.206390083148
0.209789771397
0.212899629129
0.216166127233
0.220211389126
0.149533553732
0.148958621364
0.148099214976
0.146807439287
0.145296549606
0.143556824179
0.141683595858
0.139713190099
0.137691045317
0.135647731401
0.133608679293
0.131593139473
0.129616103968
0.127689237005
0.125821856573
0.124021723443
0.122295683589
0.120650144332
0.119091388204
0.117625740015
0.116259614695
0.114999479487
0.113851763182
0.112822738004
0.111918393694
0.111144327043
0.110505660287
0.110006917655
0.10965171092
0.109442462809
0.109381400591
0.109473425608
0.109724294619
0.110130553624
0.110682571668
0.111377539091
0.112211258537
0.113179007144
0.114275572916
0.115495354154
0.11683228602
0.118279948573
0.119831284743
0.121479147448
0.123214801034
0.12503130913
0.126918323469
0.128868991368
0.13087703565
0.132932651172
0.13504015656
0.13719129863
0.139386818046
0.141639240166
0.143936025735
0.146298060714
0.148739198031
0.151230631678
0.153798930202
0.156432299286
0.159128922741
0.161879229368
0.164672570739
0.167496214605
0.170337167503
0.173183354308
0.176025152824
0.178856728963
0.181677309571
0.184492095133
0.187312738004
0.190156429338
0.193045219044
0.195994346491
0.199010241006
0.202034757356
0.204799164212
0.207370629775
0.210671022193
0.216491242709
0.146231107756
0.145708719269
0.144914615494
0.143717112552
0.142314142655
0.140691661109
0.13894137946
0.13709481014
0.135195447795
0.133271709005
0.131347883937
0.129442343254
0.127569543918
0.125740827413
0.123965376934
0.122250973111
0.12060460888
0.119032932906
0.11754252811
0.116140044726
0.114832220354
0.113625824012
0.112527557631
0.11154393837
0.110681180187
0.109945102356
0.109341064593
0.108873787401
0.108546924552
0.108363085133
0.108325776369
0.108441319817
0.108711881469
0.10913514738
0.109700840837
0.110406261606
0.11124716031
0.112218772712
0.113315860111
0.114532927643
0.115863946199
0.117302750644
0.118842148937
0.120475659882
0.122193497091
0.123990084323
0.125853583934
0.127777151608
0.12975545167
0.131775255252
0.133843735427
0.13595085709
0.13809518023
0.140289844046
0.142539399925
0.144834771359
0.147197211008
0.149617627933
0.152102417127
0.154646533344
0.157244047903
0.15988491141
0.162556411599
0.16524396735
0.167932389735
0.170607167381
0.173255764902
0.175868762901
0.178440741036
0.180970662646
0.183461453132
0.185917463238
0.188341673889
0.190712620554
0.193004859511
0.195089946828
0.196546631304
0.196523517314
0.194787354633
0.196178676135
0.143132748587
0.142657182671
0.141922390362
0.140811681796
0.139508180105
0.13799452137
0.136358749638
0.134627866222
0.13284349532
0.131031889074
0.129216192952
0.127413866119
0.125638823544
0.12390209133
0.122212741118
0.120578601857
0.119006837411
0.117504348815
0.116078012808
0.114734780344
0.113481671823
0.112325708195
0.111273810691
0.11033268899
0.109508733777
0.108807947831
0.108235906636
0.107797512893
0.107496368161
0.10733512916
0.107319321177
0.107458937094
0.107748670215
0.10818492669
0.108761634151
0.109475005178
0.110320482189
0.111293181104
0.112387727307
0.113598800438
0.114920264958
0.11634640381
0.117869506366
0.119484375126
0.121179465395
0.122951295899
0.124786490919
0.126677711167
0.128620942549
0.13059860532
0.13262050267
0.134677573663
0.136770904322
0.138908141061
0.14108635512
0.14331269069
0.145594021933
0.14792868377
0.150317013742
0.152754061928
0.155231255888
0.157736270061
0.160253679313
0.162765892821
0.165254243886
0.167700081181
0.17008572271
0.172395116663
0.174614043562
0.176729598897
0.178728533362
0.180593001498
0.18229381056
0.183748254976
0.184886345856
0.185206777453
0.183002262131
0.175374126214
0.156106639334
0.0998456419434
0.140245611236
0.139811527407
0.139130247448
0.138098795504
0.136886202376
0.135472669781
0.133942601681
0.132318836914
0.130641239983
0.128933933858
0.127218951583
0.125512834211
0.123828961655
0.122178052118
0.12056907777
0.11900992416
0.1175079248
0.116070217939
0.114703944395
0.113416314117
0.112214581493
0.11110596916
0.11009757098
0.109196249974
0.108408544101
0.10774061526
0.107198221068
0.106786412287
0.106508796471
0.106368245481
0.106371791202
0.106530679817
0.106837194575
0.107285159132
0.107870880013
0.108589936551
0.109437446626
0.110408505526
0.11149742469
0.11269924341
0.114007423055
0.115417063942
0.116919364747
0.118511224857
0.120178784588
0.121920912278
0.123722838888
0.125575444382
0.127476406496
0.129406466468
0.131373616547
0.133383528676
0.135413396468
0.137482062165
0.139588190709
0.141735378345
0.143927434323
0.146163753965
0.148441504621
0.150753575508
0.153088527833
0.155430871756
0.157761651594
0.160059279478
0.162300420174
0.164460742967
0.166515353438
0.168438696846
0.170203681782
0.171779686585
0.173129040633
0.174201469608
0.174928723184
0.175209260272
0.175091545981
0.172824792852
0.166319096129
0.152858602397
0.125899214755
0.0748529026182
0.137573506582
0.137175974426
0.136542700487
0.135583128704
0.134453044258
0.133130975652
0.131697768057
0.130172469074
0.128593318032
0.126982378469
0.125360630894
0.123743711103
0.122144481767
0.120573360246
0.11903922224
0.117550002505
0.116113184273
0.114736109484
0.11342613778
0.112190684766
0.111037181567
0.109972994518
0.109005332736
0.108141156693
0.107387101339
0.106749443872
0.106234068906
0.105846136472
0.105589466229
0.105467666316
0.105488854942
0.105662981618
0.105983327541
0.106441562099
0.107034337699
0.107756891333
0.108603872694
0.109570616252
0.110650755669
0.111840055709
0.11313114598
0.114520505129
0.115997747975
0.11756240311
0.119198059462
0.120905001688
0.122667308543
0.124473663414
0.126321933157
0.128207617692
0.130116653076
0.132059454837
0.134025959784
0.136021318562
0.138047292486
0.140106221937
0.142199585569
0.144325400957
0.146478025123
0.148647314436
0.150818409339
0.152972028735
0.155085034861
0.157131125351
0.15908144967
0.160904929476
0.162568043178
0.164033781198
0.165259360069
0.166192037776
0.166761878068
0.166869169208
0.166361983371
0.164988494968
0.162315013593
0.157313418395
0.14804467963
0.132465544026
0.105965556862
0.063559235497
0.135117766402
0.134752270377
0.13416184613
0.133267081557
0.132211440038
0.130972417527
0.129627421411
0.128192084145
0.126703167864
0.125180770315
0.123644898916
0.122110310815
0.120589376963
0.119092219857
0.117627614644
0.1162035264
0.114827555188
0.113507200879
0.112249986423
0.111063471312
0.109955198199
0.108932610029
0.108002962759
0.107173246207
0.106450133884
0.105839984623
0.105348783794
0.104981757283
0.104743074921
0.104637649741
0.104674763416
0.104861479619
0.105193360997
0.105659887427
0.106257629683
0.106981507891
0.107825259754
0.108784987661
0.109853090173
0.11102662792
0.112297067617
0.113662705477
0.11511134203
0.116644561424
0.118243168344
0.119906738809
0.121620715588
0.12337672886
0.125172609498
0.12699701029
0.128847078941
0.130721121163
0.132615044823
0.13453029294
0.136468387201
0.138430268015
0.140415108213
0.142418535281
0.144431799061
0.146441220233
0.148428076922
0.150368913701
0.152236065643
0.153998193207
0.155620605276
0.157065126744
0.158289233704
0.159244100921
0.159871042557
0.16009550692
0.159817172182
0.158893475331
0.157111598318
0.154138165163
0.149432399106
0.142044366928
0.130456856886
0.112758865193
0.0857974636392
0.0486219688421
0.13287790413
0.132540328379
0.131987972296
0.131151329642
0.130162504309
0.128998487576
0.127733399541
0.126379825774
0.124973205232
0.123531778572
0.12207467227
0.120615800193
0.119167072122
0.117738320241
0.116338210017
0.11497471034
0.113655497348
0.112388176261
0.111180372629
0.11003972418
0.108973816614
0.107990099547
0.107095806433
0.106297890705
0.10560301243
0.105017598923
0.104547745747
0.104198639372
0.103974685312
0.103882837638
0.10393466259
0.104131644401
0.10447310118
0.104945866427
0.105546254597
0.106269215142
0.107106790475