/*--------------------------------*- C++ -*----------------------------------*\
| =========                 |                                                 |
| \\      /  F ield         | OpenFOAM: The Open Source CFD Toolbox           |
|  \\    /   O peration     | Version:  v1806                                 |
|   \\  /    A nd           | Web:      www.OpenFOAM.com                      |
|    \\/     M anipulation  |                                                 |
\*---------------------------------------------------------------------------*/
FoamFile
{
    version     2.0;
    format      ascii;
    class       volScalarField;
    location    "1000";
    object      p;
}
// * * * * * * * * * * * * * * * * * * * * * * * * * * * * * * * * * * * * * //

dimensions      [0 2 -2 0 0 0 0];


internalField   nonuniform List<scalar> 
6400
(
0.185338665505
0.184937014096
0.184526109814
0.184311445284
0.18443531584
0.184304217199
0.183509431754
0.182020351017
0.179967759064
0.177411570702
0.174438231011
0.171142859647
0.167621252214
0.163963634861
0.160250800841
0.156552185879
0.152925404517
0.149416773212
0.146062417684
0.142889656075
0.139918442786
0.137162737537
0.134631725571
0.132330858093
0.1302627099
0.128427667366
0.126824468034
0.125450616373
0.124302701348
0.123376639564
0.122667858904
0.122171428003
0.121882163454
0.12179482576
0.121904521606
0.122207180057
0.122699307075
0.123375102425
0.124226357898
0.125246230948
0.126428785805
0.127767498705
0.129255768307
0.130887051863
0.132654927799
0.134553118035
0.136575484826
0.138716005424
0.140968724337
0.143327682315
0.145786822115
0.148339872864
0.150980217245
0.153700748435
0.15649372651
0.159350646438
0.16226213149
0.165217866368
0.168206583371
0.171216112351
0.174233501059
0.177245206623
0.180237351732
0.183196030811
0.186107642757
0.188959218282
0.191738699224
0.194435113056
0.197038577882
0.199540074879
0.201930895937
0.204201547389
0.20633970411
0.208327215469
0.210137783799
0.21173619693
0.213069480064
0.214037504154
0.214505693391
0.214523833579
0.185136966732
0.184714715779
0.184472805983
0.184275707059
0.184119947549
0.184104341953
0.183366111795
0.181883405103
0.179797566205
0.177195850978
0.174176728583
0.170840764682
0.16728644961
0.163604959945
0.159876915102
0.156170887419
0.152543267421
0.149039026354
0.145692984468
0.142531289985
0.139572909049
0.136831006233
0.134314154401
0.132027352906
0.129972857998
0.128150842858
0.126559910715
0.125197486155
0.124060109986
0.123143662614
0.122443532227
0.121954713207
0.121671803804
0.121589033123
0.121700807292
0.12200303354
0.122493911968
0.123169801401
0.124023687827
0.125047738589
0.126234045934
0.127575561019
0.129065528966
0.130697384217
0.132464725691
0.134361312089
0.136381052209
0.138517980082
0.140766209742
0.143119866635
0.14557299472
0.148119440397
0.150752717122
0.153465857391
0.156251261801
0.159100557514
0.162004480396
0.164952795757
0.167934271696
0.17093671644
0.173947087138
0.176951671562
0.179936337096
0.18288683323
0.185789124593
0.188629723591
0.191395983477
0.194076299449
0.19666015487
0.199137962776
0.201500611617
0.203738548974
0.205840175312
0.207789498058
0.209563691664
0.21113104428
0.212445884923
0.213434793847
0.213994003923
0.214095082718
0.185576742907
0.185007169243
0.184580205577
0.184344390462
0.183962304677
0.1834531297
0.182422413646
0.180780148988
0.178572979235
0.175881539805
0.17280411366
0.169440236635
0.165885333498
0.162226215119
0.158538610672
0.154886251457
0.151321112679
0.147884385743
0.144607827726
0.141515231213
0.138623848869
0.135945679858
0.133488576749
0.131257164743
0.129253584183
0.127478076593
0.125929437596
0.124605360445
0.123502694734
0.122617646247
0.121945928678
0.121482811886
0.121222961906
0.12116039608
0.121290075454
0.121611282725
0.12212127725
0.122812360746
0.123677413253
0.124709838281
0.125902728347
0.127249277587
0.12874280676
0.130376781174
0.132144824325
0.134040727125
0.136058446461
0.138192087228
0.140435862948
0.14278403139
0.145230803295
0.147770224577
0.150396035174
0.153101510988
0.15587929867
0.158721256147
0.161618314211
0.164560375598
0.167536267046
0.170533757061
0.173539648504
0.176539948888
0.179520113537
0.182465349585
0.185360957545
0.188192679557
0.190947018144
0.193611483789
0.196174690407
0.198626281867
0.200956598055
0.203155936626
0.205213362028
0.207114968341
0.208841412705
0.210365016052
0.211647671926
0.212635508051
0.213237657226
0.213388156281
0.1864216903
0.185778182887
0.185101426958
0.18444051105
0.183623398765
0.182567654463
0.181107261575
0.179174837719
0.176777249144
0.173971469532
0.170839297233
0.167468738196
0.163945187943
0.16034621624
0.156739166263
0.15318046644
0.14971602776
0.146382247275
0.143207281893
0.140212373157
0.137413094358
0.134820455385
0.132441842175
0.130281791981
0.128342618401
0.126624905111
0.125127887954
0.12384974596
0.122787826246
0.121938825792
0.12129891313
0.120863689534
0.120627958991
0.120585993418
0.120734037844
0.121073689913
0.121601102813
0.122306685483
0.123184048877
0.124226456328
0.125427130925
0.126779351036
0.128276490109
0.129912048827
0.131679683416
0.133573227663
0.135586703359
0.137714313358
0.139950411726
0.142289446347
0.144725870839
0.147254024965
0.149867985792
0.152561395548
0.155327276065
0.158157843529
0.16104434041
0.163976903475
0.166944486011
0.169934848566
0.172934630058
0.175929505234
0.178904423249
0.18184392016
0.184732480068
0.187554916195
0.190296725953
0.192944426829
0.195485708587
0.197909466729
0.200205647533
0.202364686666
0.204376633676
0.206229908727
0.207909115222
0.209391894751
0.210648096199
0.211638538872
0.212271219003
0.21247350638
0.18731257301
0.18646121761
0.18543385825
0.184275444799
0.18294289056
0.181374892033
0.179477765304
0.177213597864
0.174589670348
0.171650057628
0.168459538518
0.165090209308
0.161613105276
0.158093210518
0.154587161711
0.151142606004
0.147798537942
0.144586139525
0.141529821517
0.138648287211
0.135955523189
0.133461673746
0.131173785881
0.129096428142
0.1272321943
0.125582105108
0.124145921206
0.122922383895
0.121909410782
0.121104261605
0.120503602566
0.12010332311
0.119898365291
0.119883903896
0.120058515946
0.120422605005
0.120970722586
0.121693939324
0.122586097254
0.12364064453
0.124850950277
0.126210374376
0.127712329489
0.129350333306
0.131118054881
0.133009353208
0.135018303479
0.137139205076
0.139366564915
0.141695050155
0.144119405512
0.146634332754
0.149234333312
0.151913519257
0.154665402599
0.157482677699
0.160357015634
0.163278892628
0.166237475406
0.169220578509
0.172214707893
0.175205205406
0.178176480591
0.181112338107
0.183996360288
0.186812344859
0.189544666395
0.192178764819
0.194701327361
0.197100405044
0.19936549899
0.20148712954
0.203456141461
0.205262856679
0.206895394766
0.208336416519
0.209561603489
0.210546654331
0.211192678998
0.211444426697
0.187808511917
0.18656921031
0.185204518433
0.183609689048
0.181812472633
0.179791940629
0.17750637431
0.174942115308
0.172112798565
0.169055857298
0.165822660415
0.1624700414
0.159054227047
0.155627058932
0.152234157502
0.148914353389
0.145699874754
0.142616921622
0.139686398017
0.136924671049
0.134344288853
0.131954625831
0.129762443574
0.127772366505
0.125987276586
0.12440863315
0.123036724339
0.121870863492
0.120909559166
0.12015066507
0.119591382609
0.119227940193
0.119055566879
0.119070801392
0.11927512645
0.119665929403
0.120235712879
0.120977939689
0.121886224074
0.122954087012
0.124174969545
0.125542276998
0.127049438162
0.128689968133
0.130457530095
0.132345991522
0.134349469045
0.136462355053
0.138679318186
0.140995269937
0.143405290533
0.145904509479
0.148487939885
0.151150270897
0.153885628011
0.15668731742
0.159547575796
0.162457350443
0.16540614225
0.168381926252
0.171371158174
0.174358913654
0.177329103763
0.180264836172
0.183148794577
0.185963810196
0.188693108113
0.191321091924
0.193833502507
0.196217522189
0.198462208083
0.200558101789
0.202496557764
0.204269164478
0.205866611891
0.207275647182
0.208473864992
0.209453157652
0.210102961002
0.210400645205
0.187160605966
0.185774460156
0.184222066245
0.182311540653
0.180162990126
0.177792271507
0.17520299807
0.172404649993
0.169418646638
0.166278946827
0.163027053873
0.159707328999
0.1563633094
0.153035332591
0.149759313386
0.146566312524
0.143482595543
0.140529957468
0.137726172156
0.135085483409
0.132619091162
0.130335606693
0.128241462564
0.126341270299
0.124638123518
0.123133846725
0.121829192008
0.120723994754
0.119817314439
0.119107557286
0.11859243463
0.118268604764
0.11813180298
0.118179632
0.118414821696
0.118833651668
0.119427237744
0.120189899214
0.121115502699
0.122197724902
0.123430086226
0.124806017965
0.126318936571
0.127962322216
0.129729798173
0.131615206758
0.133612675748
0.135716667335
0.137922000157
0.140223834327
0.142617610131
0.145098932957
0.147663400909
0.150306378388
0.153022724761
0.155806495263
0.158650640883
0.161546729747
0.164484741564
0.16745295833
0.170437906785
0.173424523861
0.176396312893
0.179335807108
0.182224821318
0.18504540226
0.187779619814
0.190410953495
0.192924358716
0.19530612775
0.197544893503
0.199631129307
0.201556387203
0.203312921674
0.204892840556
0.20628630508
0.207468742991
0.208449157295
0.209100850779
0.209441143255
0.18546742348
0.184080183659
0.182460009303
0.180363037159
0.17799148827
0.175388550034
0.172594942199
0.169640851796
0.16655660808
0.16337544765
0.160132420151
0.156862742871
0.153600202005
0.150376039881
0.147218335599
0.144151755867
0.141197556517
0.138373739905
0.135695304629
0.133174544571
0.130821366813
0.128643605853
0.126647317635
0.124837042378
0.123216029856
0.121786424241
0.120549410039
0.119505329851
0.118653791857
0.11799374864
0.117523423193
0.117240026725
0.117140071199
0.117222049897
0.117488873928
0.11793620389
0.118554398805
0.11933831518
0.120282052367
0.121379421403
0.122623999606
0.124009218071
0.125528451134
0.127175110494
0.128942742453
0.130825124868
0.132816357629
0.134910937728
0.137103807574
0.139390363766
0.141766413933
0.144228071016
0.146771576992
0.149393058734
0.152088224466
0.154852014461
0.157678250201
0.160559284956
0.163485732495
0.166446373526
0.169427947464
0.172415454235
0.175392098079
0.178340096619
0.18124039486
0.184074659668
0.186823817437
0.189470613235
0.191999521192
0.194395852871
0.196647857197
0.198745779209
0.200680970671
0.20244589206
0.204032797477
0.20543461492
0.206621242122
0.207617715866
0.208277605857
0.208659594476
0.18300118033
0.181651890009
0.180022672306
0.177838862095
0.175354734779
0.172626618526
0.169722886692
0.166689645052
0.163565514332
0.160384715572
0.157178657638
0.153976486164
0.150805110139
0.147689106117
0.144650624287
0.141709341844
0.138882479833
0.136184884801
0.133629168458
0.131225891395
0.128983772659
0.126909906452
0.12500996981
0.1232884095
0.1217486006
0.120392973281
0.119223111289
0.118239835799
0.117443280704
0.116832908573
0.116407375277
0.116164408302
0.116101546281
0.116218425896
0.116517152117
0.11699282572
0.117635721144
0.118441129703
0.119403348072
0.120516284254
0.121773539652
0.123168513402
0.124694504368
0.126344818653
0.128112883542
0.129992365729
0.1319772878
0.134062132919
0.136241924483
0.138512264597
0.140869315085
0.143309708204
0.145830370451
0.148428262009
0.151100046213
0.153841676362
0.156648001142
0.159512341227
0.162426078875
0.165378749051
0.168357417212
0.171347458345
0.174331829397
0.177292940232
0.180210745328
0.183067281032
0.185842343422
0.188518149578
0.191079213499
0.193509592116
0.195797425879
0.197932726619
0.199906149268
0.201710115125
0.203335859769
0.204777638002
0.205997779623
0.207032765978
0.207714802487
0.208142282443
0.179946126296
0.178654352515
0.177052642677
0.174853493123
0.172341056533
0.169573811406
0.166638943978
0.163592937844
0.160480879258
0.157338529907
0.154195569152
0.15107748191
0.148006691055
0.145003191122
0.142084870071
0.139267663695
0.136565643607
0.133991099742
0.131554645599
0.129265350692
0.12713089111
0.125157704056
0.123351133117
0.121715554622
0.120254478916
0.11897062413
0.117865969571
0.116941808676
0.116198795904
0.115636883597
0.115255064852
0.115051454443
0.11502499652
0.115177663422
0.115508448408
0.116011319259
0.116678593897
0.117505491724
0.118486387031
0.119615218379
0.120885573232
0.122290790053
0.123824064115
0.125478563373
0.127247556228
0.129124550179
0.13110343559
0.13317862311
0.135345159716
0.137598803831
0.139936035939
0.14235399576
0.144850312582
0.147422824037
0.150069241269
0.152786640277
0.155571033024
0.15841692833
0.161316515474
0.164260451373
0.167236116795
0.170229782099
0.173224037339
0.176202413793
0.179143491254
0.182030762396
0.184842853594
0.1875615027
0.190172306218
0.192657584586
0.195006542926
0.197209626671
0.199255628559
0.201136349613
0.202841142883
0.204362536182
0.205655348997
0.206758116927
0.207483213658
0.207967195868
0.176447569983
0.175231527105
0.173686498769
0.171524555101
0.169045794533
0.166304578957
0.163400110704
0.160394442721
0.157337089511
0.154265211478
0.151207858375
0.148188510067
0.145226862105
0.142339922433
0.13954263521
0.136848218026
0.134268353309
0.131813322838
0.129492130273
0.127312626175
0.125281633093
0.123405062013
0.121688011746
0.120134845889
0.118749244461
0.117534230213
0.116492180522
0.115624850769
0.114933394992
0.11441822895
0.114078650617
0.113913115042
0.113921964334
0.114109608838
0.114471640356
0.115000541032
0.115691588438
0.11653964111
0.117539072839
0.118683812079
0.119967409408
0.121383125461
0.122924033725
0.124583139819
0.126353519375
0.128228475134
0.13020170872
0.132267493286
0.134420829902
0.136657568709
0.138974450778
0.141369084548
0.14383979926
0.146385312987
0.149004460674
0.151695528527
0.154455753853
0.157281161764
0.160164554653
0.163098304818
0.166069842966
0.169067215685
0.172072198014
0.175070785843
0.178039354575
0.180963990891
0.183822266117
0.186595451768
0.189272659014
0.19183359895
0.194270873725
0.196576741339
0.198735183645
0.200735912201
0.202566145121
0.204212660626
0.205626798526
0.206837501367
0.207637921782
0.208201767835
0.172645863097
0.171516687207
0.170048327444
0.167960650776
0.165559371999
0.162891216661
0.160062478211
0.15713710016
0.154167245217
0.151191011598
0.148237336128
0.145328700984
0.142483242257
0.139716100021
0.137040244933
0.134466969502
0.132006192742
0.12966667219
0.127456171928
0.12538160505
0.123449153087
0.12166435936
0.120032193686
0.11855708834
0.11724294677
0.116093128596
0.115110424806
0.114297050414
0.113654634592
0.113184037668
0.112884936849
0.112756244248
0.112799158433
0.113018708515
0.113410121394
0.113965037926
0.114679395792
0.115548169583
0.116565797439
0.117726220805
0.119022960806
0.120449203127
0.121997897666
0.123661877961
0.125434005078
0.127307339854
0.129275342889
0.131332085271
0.133472444486
0.135692288909
0.137988543424
0.140359213862
0.142803318015
0.145320394592
0.147910451982
0.150573070834
0.15330658301
0.156109118093
0.158973484022
0.16189474604
0.164859739555
0.167859477598
0.170874011697
0.173892989189
0.176889557061
0.179853745819
0.182763337936
0.185599261862
0.188358813157
0.191017133782
0.193569677174
0.196010812914
0.1983181968
0.200479614408
0.202481994856
0.204306546271
0.205903906122
0.207282746586
0.208209824093
0.208897722075
0.168667244117
0.167628402157
0.166247482082
0.164257806887
0.161962755175
0.159399539054
0.156677946438
0.153861108396
0.15100239716
0.148140266196
0.145303675948
0.142514636859
0.139790426829
0.137145045817
0.134590167434
0.13213575181
0.129790457126
0.127561934707
0.125457052035
0.12348206229
0.121642726563
0.119944391344
0.118392024804
0.116990217353
0.115743152799
0.114654558169
0.113727648605
0.112965089647
0.112368950629
0.111940503524
0.111679867223
0.111586517513
0.111662193615
0.111911807411
0.112330944206
0.112910781859
0.113647491055
0.114536132764
0.115571199799
0.116746652617
0.118055994952
0.11949235205
0.121048562761
0.122717294124
0.124491185781
0.126363031584
0.128326006418
0.130373923436
0.132501452703
0.134704407355
0.136979812766
0.139325952124
0.141742543118
0.144229797191
0.146788888534
0.149420853346
0.152124603865
0.154901440328
0.157743022926
0.160648407157
0.163602807768
0.166600989056
0.169620342623
0.17265473502
0.175674386934
0.178675673247
0.181641424164
0.184548142753
0.187404703146
0.190183290403
0.192870603126
0.195462985346
0.197947190692
0.200312214932
0.202542272414
0.204612537428
0.206469573727
0.208092198956
0.209218952995
0.210095576819
0.164614832426
0.163664978613
0.162375719173
0.160497459305
0.158325522266
0.155887001897
0.153292599559
0.150602723738
0.147870842219
0.145135164625
0.142424584723
0.139760841858
0.137160724529
0.134637530908
0.132202088633
0.129863457498
0.127629431748
0.125506910427
0.123502171787
0.121621068646
0.119869153708
0.118251742849
0.116773925948
0.115440536072
0.114256087725
0.113224697263
0.11235000547
0.111635114775
0.11108249572
0.110693760812
0.110469440824
0.110409664387
0.110516641281
0.110794732066
0.111240144126
0.111843575256
0.11260136673
0.113508652908
0.114559980109
0.115749339222
0.117070237198
0.118515765213
0.120078678011
0.121751498014
0.123526653948
0.125396663785
0.12735437889
0.129393320528
0.131507860019
0.133693688967
0.135947872519
0.138268762897
0.140656863014
0.143112813033
0.145638824042
0.148237796491
0.150908140026
0.153655898979
0.156469979686
0.159354262058
0.162291476317
0.16527968421
0.168294348038
0.171334718917
0.174374005473
0.177410009452
0.180442725488
0.183429051512
0.186373649875
0.189263227099
0.192090089121
0.194850673688
0.197538365487
0.200144881327
0.202655091241
0.205040500868
0.207243251912
0.209206280883
0.210646912689
0.211828737636
0.160569362081
0.159704522705
0.158506957684
0.156746115109
0.154705401413
0.152402098323
0.149946036846
0.147393643827
0.144797664911
0.142195516759
0.139615823542
0.137080056344
0.134604667119
0.132202493711
0.129883808668
0.127657082868
0.125529557676
0.123507674783
0.121597390286
0.119804387566
0.118134200715
0.116592261666
0.115183886494
0.11391421643
0.112788127658
0.111810127619
0.11098426442
0.110314051088
0.109802310074
0.109450854314
0.109260457563
0.109232199387
0.109369485768
0.109674892224
0.110144987967
0.110770382506
0.111547619641
0.112471910056
0.113537848672
0.114739466698
0.116070297731
0.117523432625
0.119091579825
0.120767153091
0.122542396866
0.124409566737
0.126361147869
0.128390378311
0.130491225476
0.132659192378
0.134891403174
0.137185914517
0.139544232025
0.141967135646
0.144457526425
0.147020967709
0.149653712613
0.152367995982
0.155148443591
0.158003040715
0.160912954159
0.163879095875
0.166880872325
0.169918631766
0.172989414873
0.1760544369
0.179119460624
0.182164474798
0.18518543108
0.188176808297
0.19113639701
0.19406550627
0.196965141706
0.199833692322
0.202661003384
0.20541975065
0.208050392338
0.210463179784
0.212377937272
0.214024884849
0.156593132913
0.155807839502
0.154699256065
0.153056626506
0.151148984028
0.148984643011
0.146671367109
0.144260853213
0.141804561908
0.13933865546
0.136891253029
0.134483458067
0.132131413488
0.129847615174
0.127641964193
0.125522566104
0.123496350518
0.121569540843
0.119747992042
0.118037409227
0.116443461724
0.114971810923
0.113628072752
0.112417734413
0.111346041479
0.110417876203
0.10963766181
0.109009285684
0.108535873033
0.108219298292
0.108060382809
0.108061704758
0.108229873449
0.108562179318
0.109053792586
0.109699002455
0.110493677998
0.111432955714
0.112511427658
0.113723163607
0.115061745422
0.116520301031
0.118091536765
0.119767805506
0.121541203337
0.123403777389
0.125347568405
0.127365613089
0.129451350468
0.13159998885
0.133808906282
0.13607528165
0.138401997094
0.140789766789
0.143241495893
0.14576633934
0.148356473726
0.151030686653
0.153769188445
0.156582188556
0.159455781048
0.162389753583
0.165386821409
0.168410400569
0.17146837064
0.174539812105
0.177618629215
0.180694723829
0.183764771513
0.186829106995
0.189892350961
0.192963427482
0.196053035361
0.199170037662
0.202314030302
0.205464960912
0.208565904525
0.211499018019
0.213988834677
0.21611730192
0.152733479465
0.152021454128
0.150997346695
0.149470132166
0.147693062239
0.145666596922
0.143495648855
0.141226815602
0.138909914278
0.136579492915
0.134262947544
0.131980877676
0.129749083669
0.127579768462
0.125482577601
0.123465412705
0.121535076764
0.119697763522
0.117959401951
0.116325868018
0.114803081721
0.113397012639
0.112113619584
0.110958747231
0.109937997097
0.109056595017
0.108319293901
0.107730296486
0.107292975615
0.107009275612
0.106880135648
0.106909266411
0.107104880357
0.107462113459
0.10797419343
0.108637422335
0.109447471325
0.110399478701
0.111488063766
0.112707356389
0.114051012063
0.115512235392
0.117083773737
0.118757980148
0.120526825054
0.122382283779
0.124315780262
0.126320337775
0.128388738478
0.130515682201
0.132699284741
0.134935069402
0.13722770118
0.139577802454
0.141987136801
0.144468942367
0.147009810479
0.149633903459
0.152323747286
0.155083971018
0.157927652948
0.16081751515
0.163768125263
0.166758971261
0.169783347407
0.172828560788
0.175886883362
0.178952660288
0.182025459518
0.18511050545
0.18821908505
0.191368503583
0.194580180332
0.197875565553
0.201266965057
0.204745860075
0.208254193327
0.211623596164
0.214569045581
0.217034029319
0.149025554301
0.148380205708
0.147434995988
0.146018019667
0.144366118361
0.142473110018
0.140440563496
0.138309879806
0.136129031436
0.133930692832
0.131741362468
0.129581002521
0.127465017477
0.125405332227
0.123411411263
0.121491068022
0.11965111612
0.117897859091
0.1162374254
0.114675961672
0.113219706117
0.111874970225
0.11064805834
0.109545150331
0.108572165819
0.107734631967
0.107037588563
0.106485502136
0.106081964288
0.1058291234
0.105728310963
0.105783934753
0.106004009274
0.106383683424
0.106914739487
0.107594000244
0.108417175936
0.109379437371
0.11047544593
0.111699408445
0.113045068303
0.114505745471
0.11607425457
0.117743037397
0.119503891567
0.121349013849
0.123268866999
0.125256772746
0.127304795963
0.129406740068
0.131562236164
0.133764318019
0.136019489802
0.138328414533
0.140690090207
0.143121847778
0.145608655934
0.148169491851
0.150818186218
0.153517914363
0.156294043907
0.159127571776
0.162014695117
0.164942627505
0.16790119306
0.170879826094
0.173870798357
0.176870075056
0.179879092295
0.182906006317
0.185966518407
0.189084089856
0.192288469905
0.195611172366
0.199073874845
0.202673085761
0.206309908609
0.209723989651
0.21315507133
0.217066573863
0.145494761011
0.144909526938
0.144037096163
0.142723712826
0.141189749193
0.139423587301
0.137523166083
0.13552478396
0.133474485741
0.131402904628
0.129335521162
0.127291550662
0.125285951887
0.123330372966
0.1214341458
0.119605075737
0.117850081573
0.116175668776
0.114588241407
0.113094267851
0.111700326966
0.110413067331
0.109239112064
0.108184935176
0.107256728365
0.106460280165
0.105800887603
0.105283244406
0.104911123341
0.104686973556
0.104612797797
0.104693529846
0.104935947911
0.105335870543
0.105883842728
0.106576916337
0.107410802055
0.108380677312
0.109481228038
0.110706749729
0.11205106473
0.113507656372
0.115069383041
0.116728930966
0.118477702603
0.120308657955
0.1222107482
0.124177998376
0.126201890849
0.128274731033
0.130398437449
0.132562810491
0.134775565919
0.137037979667
0.139346509902
0.14171734838
0.144158279043
0.146653358834
0.149224979427
0.151858479494
0.154556550578
0.157309103996
0.160107292435
0.162939235389
0.165792977723
0.168657229512
0.171523113035
0.174385610557
0.177245076453
0.180108570766
0.182990847779
0.185914720648
0.188909799073
0.192007271565
0.195224350555
0.198532495704
0.201700446569
0.204699561278
0.208268258327
0.214336222478
0.142158870852
0.141627430811
0.140821487766
0.139604245072
0.138179951345
0.136532687432
0.134756623264
0.132883178615
0.130956474212
0.129005013437
0.127053192773
0.125119403097
0.12321812183
0.121360718236
0.119556422449
0.117813082343
0.116137778391
0.114537267017
0.113018259556
0.111587555357
0.110252060518
0.109018728857
0.10789445902
0.106885972143
0.105999688049
0.105241624404
0.104617323111
0.104131689189
0.103788597053
0.103590757671
0.103541233671
0.103645868997
0.103908683689
0.104326656418
0.104889316319
0.105593846531
0.106435911879
0.107410657324
0.108512744809
0.109736586885
0.111076032203
0.112524815495
0.114075702534
0.115721918689
0.117453962324
0.119266401732
0.12114605362
0.123087966758
0.125083393553
0.127122240767
0.129209167837
0.131330430028
0.133494231592
0.13570321763
0.137961218875
0.140271506174
0.142638360333
0.14506416198
0.147554098697
0.150102183708
0.152704424202
0.155351521472
0.158031899865
0.160731880248
0.163437019942
0.166133325613
0.168808592675
0.171453639515
0.174063368671
0.176637517652
0.179180881512
0.181702623636
0.184213723121
0.186720177918
0.189205768103
0.191584562793
0.193494114813
0.194577354333
0.194898398375
0.198431237583
0.139029776283
0.138546171771
0.137800496349
0.13667160175
0.135348238261
0.133811212213
0.132150890231
0.130394120966
0.128583166147
0.126744375596
0.124901044097
0.123070692538
0.121267298539
0.119501950949
0.117783795623
0.116120748644
0.114520075785
0.112988796617
0.111533924806
0.110162567195
0.108881917797
0.107699186082
0.106621493303
0.105655757688
0.104808583636
0.104086185138
0.103494337114
0.103038146792
0.102721475908
0.102547140219
0.102519957681
0.102648399748
0.102930482109
0.103363500356
0.103938371856
0.104651871851
0.105499503236
0.106476328068
0.107576873463
0.108795753154
0.110126696439
0.111563869917
0.113099622903
0.114728242813
0.11643856537
0.11822776972
0.120080153911
0.121991569403
0.123953454897
0.125952106426
0.127995133381
0.130068421001
0.132179018907
0.134337076227
0.136527837273
0.138768040955
0.141059230026
0.143402821241
0.145799783243
0.148245318277
0.150732036809
0.153248590926
0.155780478566
0.158310836156
0.160821446044
0.163293764119
0.165709832594
0.168052899703
0.170307539121
0.172458965919
0.174491020991
0.176381822558
0.178094968686
0.179561474685
0.180641049002
0.181024600962
0.18004628267
0.17514280108
0.158938910362
0.103608927659
0.136114893405
0.135673588239
0.134982187672
0.133933830509
0.132702579738
0.131266869181
0.129713302845
0.128064514619
0.126361013968
0.124627023985
0.122884759941
0.121150854989
0.119438784295
0.117759355981
0.116121638339
0.114533620701
0.113002751099
0.111536295732
0.110141538794
0.108825849266
0.10759665474
0.106461362997
0.10542726355
0.104501425485
0.103690602798
0.103001181687
0.102439156109
0.102009833627
0.101717061178
0.10156376715
0.101556787775
0.10170773551
0.102008166403
0.102452856532
0.103037425856
0.103757427015
0.104607996258
0.105584137284
0.106680017327
0.107890657596
0.109209364896
0.110631079145
0.112147245726
0.113753950427
0.115437680537
0.117198797982
0.119019035039
0.120893792677
0.122815386727
0.124767836716
0.126757673025
0.128787226702
0.130837550303
0.13292691973
0.135050347297
0.137213945041
0.139420375223
0.141670139567
0.143961344829
0.146287555394
0.148638330665
0.150999134414
0.15335179264
0.155675226606
0.157946237104
0.160140166886
0.162231232213
0.164192265667
0.165993513149
0.16759991974
0.168965905708
0.170025746833
0.170675770843
0.170740423036
0.169904681704
0.16757105478
0.162573525832
0.152140353572
0.127980318592
0.0768985653606
0.133418266674
0.133014168225
0.132371371922
0.131395938857
0.130248171941
0.128904906064
0.127449077375
0.125899484559
0.12429501801
0.122657838293
0.121009133826
0.119364654103
0.117737381886
0.116137844986
0.114575032213
0.113056995244
0.11159134176
0.110185548567
0.108847122445
0.107583638727
0.106402700533
0.105311859168
0.104318525012
0.103429881003
0.102652806833
0.101993844978
0.101459177108
0.101054283776
0.100783169023
0.100649276317
0.100660639457
0.100828219934
0.101143912214
0.101599742689
0.102192177148
0.102916453824
0.103767349946
0.10474010834
0.105828121174
0.107027229792
0.108329883893
0.109732316343
0.111224649672
0.112805284668
0.114458003379
0.116185725181
0.117967821006
0.119797865786
0.121669797957
0.123577082778
0.125512649004
0.127477940447
0.129467531946
0.131485799141
0.133532977104
0.135612068611
0.137724592543
0.13986929746
0.14204149691
0.144231959168
0.146426802102
0.148607631579
0.150751956362
0.152833771651
0.15482407858
0.156691113041
0.158400023103
0.159911658815
0.161179989445
0.162147374309
0.162736359401
0.162835620659
0.162275635414
0.160785777461
0.157916603257
0.152897754553
0.144367304451
0.12993207645
0.104517998054
0.0629810772271
0.130941429992
0.13056988528
0.129970396199
0.129060608134
0.127988056642
0.12672862689
0.125361721193
0.123902687239
0.122388944721
0.120840681786
0.119278134435
0.117716188277
0.116167353051
0.114641876673
0.113148659995
0.111695794585
0.11029101184
0.108941950546
0.107656282006
0.106441724591
0.105305992303
0.104256716332
0.103301365331
0.102447174051
0.101701091477
0.101069772579
0.100559540384
0.100176020381
0.0999236270754
0.0998070125818
0.0998353205613
0.1000168585
0.100345267991
0.100810273284
0.101408462714
0.102134751702
0.102983195378
0.103949849997
0.105026675825
0.106210968884
0.107493988211
0.108873671284
0.110338626569
0.111889055199
0.113505734483
0.115191820277
0.11692833888
0.118706836847
0.120530113824
0.122378779122
0.124255756235
0.126156010782
0.12807616829
0.13001746188
0.131980826512
0.133967469332
0.135976976367
0.138005744752
0.140046028202
0.142085179549
0.144105464775
0.146084246767
0.147994375419
0.149804619412
0.151479908877
0.152981135645
0.154264219864
0.155278066901
0.155960874817
0.156233954241
0.155991692866
0.155085379539
0.153297009871
0.150296616345
0.145572024621
0.138315901486
0.127234542526
0.110331998076
0.084042095088
0.0476160001767
0.12868407092
0.128340847295
0.127779762925
0.126928754507
0.125923612219
0.124739804892
0.123453363874
0.122076561633
0.120645502723
0.119178509415
0.117694954189
0.11620888884
0.114732375913
0.113275383379
0.11184671116
0.110454460777
0.109106443396
0.107810404144
0.106574115418
0.105405370981
0.104311926214
0.103301421943
0.102381314611
0.101558821801
0.100840905393
0.100234312606
0.0997455122159
0.0993802284172
0.0991433575024
0.0990415193971
0.099085566068
0.0992788077458
0.0996181039485
0.100090263724