/*--------------------------------*- C++ -*----------------------------------*\
| =========                 |                                                 |
| \\      /  F ield         | OpenFOAM: The Open Source CFD Toolbox           |
|  \\    /   O peration     | Version:  v1806                                 |
|   \\  /    A nd           | Web:      www.OpenFOAM.com                      |
|    \\/     M anipulation  |                                                 |
\*---------------------------------------------------------------------------*/
FoamFile
{
    version     2.0;
    format      ascii;
    class       volScalarField;
    location    "1000";
    object      pa;
}
// * * * * * * * * * * * * * * * * * * * * * * * * * * * * * * * * * * * * * //

dimensions      [0 2 -2 0 0 0 0];


internalField   nonuniform List<scalar> 
6400
(
0.986669324005
0.908315439366
0.746141774187
0.642414511109
0.642307698066
0.724313715251
0.890767842109
1.06852512087
1.23518445901
1.39125774556
1.53395149318
1.65768106766
1.75916612856
1.83810286218
1.89576763114
1.93403836908
1.95505845643
1.96109548736
1.95439836619
1.93707371979
1.91101380508
1.87787300312
1.83907176182
1.79581554083
1.74911965908
1.69983780094
1.64868995345
1.59628993917
1.54317074304
1.4898118969
1.43667528288
1.38428433956
1.33337771423
1.28509199951
1.23989211636
1.19161963814
1.11342353255
0.998892811771
0.854535667586
0.692649657121
0.521838008631
0.346415454985
0.16857599552
-0.0100463417847
-0.187930713928
-0.363675846191
-0.53601356053
-0.703768633874
-0.865814621695
-1.02105024347
-1.16838857881
-1.3067530556
-1.4350769596
-1.55231058538
-1.65743666108
-1.74949758062
-1.82763323991
-1.89113045105
-1.93947973133
-1.97243670432
-1.99008047412
-1.99286327464
-1.98164246601
-1.95768988631
-1.92267218294
-1.87860310124
-1.82776451436
-1.77260963309
-1.71562991152
-1.6592431696
-1.60556471478
-1.55638237962
-1.51249663875
-1.47440084154
-1.43946872841
-1.4079557564
-1.36967779152
-1.34234199247
-1.29577694383
-1.3604705925
0.762308790854
0.614272828066
0.536870945627
0.501453121407
0.599007848528
0.936036573203
1.38700236132
1.94175128094
2.5968565927
3.33684571009
4.14102085317
4.98828056624
5.8598683299
6.74016715219
7.61639162504
8.4781548461
9.31718649129
10.1270892906
10.9030576261
11.6415822676
12.3401823151
12.9971813003
13.611524085
14.1826292438
14.7102701906
15.194482412
15.6354909875
16.0336565235
16.3894351093
16.7033498456
16.9759717176
17.2078807171
17.399687711
17.5524921073
17.671759475
17.7786423685
17.9109054594
18.046886961
18.1557947866
18.2268195032
18.2590573888
18.2520562219
18.2044416237
18.1146480455
17.9813022631
17.80323113
17.5794191502
17.3090230596
16.991419523
16.6262568174
16.2135054743
15.7535122309
15.2470614063
14.6954435794
14.1005305142
13.464851767
12.7916672063
12.0850253053
11.349796011
10.5916644581
9.81707372955
9.03310666623
8.24730309054
7.46741491542
6.70111082909
5.95564770813
5.23753525904
4.55221200306
3.90377284369
3.29472258866
2.72588150378
2.19616149975
1.70299636777
1.24152471676
0.807776881638
0.393038032141
0.005460766177
-0.371688193105
-0.62145049205
-0.944693953547
0.603553162871
0.52705504117
0.54858905904
0.566166160889
0.647016918992
0.825062457151
1.07274013723
1.38354764539
1.74596413051
2.14112827158
2.55109600417
2.96137164342
3.3603183622
3.73889829389
4.09058828406
4.41104846961
4.69767916222
4.94922540824
5.16544793358
5.34684231779
5.49440591671
5.60945557098
5.69349281188
5.74810722201
5.77491011729
5.77549101971
5.75139236525
5.70409657611
5.63502357661
5.54553044637
5.43692065961
5.31041066854
5.16700084176
5.00625891798
4.82245904033
4.59655445488
4.34042430195
4.08323188258
3.83727138004
3.59996500477
3.36952215054
3.14714381046
2.93492031977
2.73485487616
2.54875626127
2.37821421032
2.22450181898
2.08847748804
1.97052139884
1.87049807841
1.78773303929
1.72100177797
1.66853264567
1.62802702895
1.59669916028
1.57134016439
1.54840983811
1.52416058957
1.49479425336
1.45665030089
1.40641732921
1.34135538604
1.25951017116
1.15989760925
1.04263670891
0.909010888267
0.761449469293
0.603415988509
0.439235354823
0.273797808876
0.11232055792
-0.0403018329065
-0.179411962275
-0.302918240297
-0.407773618053
-0.501618185003
-0.568750517058
-0.647142969196
-0.544186175864
-0.774428888961
0.285555698806
0.481977367257
0.428130880946
0.408558515153
0.600262066538
0.877236579804
1.19064433947
1.55051634196
1.95340045963
2.38503720863
2.83428934629
3.29369627782
3.75688868662
4.21822186607
4.67320608642
5.11851333743
5.55169718521
5.97094243754
6.37490363182
6.76258819558
7.13326072722
7.48636969738
7.82149648838
8.13832297825
8.43661112913
8.71619134568
8.9769554262
9.21885369493
9.44188947656
9.64611682671
9.83160635043
9.99844953736
10.1466565155
10.2769773124
10.3920344038
10.4992071418
10.5709245177
10.6039550563
10.6062304905
10.5780642894
10.516890762
10.4217212596
10.2928460576
10.130875299
9.93655892727
9.71092851683
9.45538328597
9.17169783151
8.86200962418
8.52880265414
8.17488084371
7.80332475657
7.41743178391
7.0206394412
6.61643292204
6.20823691967
5.79929570974
5.39254682367
4.99049912482
4.59512771575
4.20780193746
3.82926066539
3.45964734766
3.09860898898
2.74545709261
2.39937587948
2.05966490217
1.72598105646
1.39859760768
1.07857954199
0.768107425523
0.470333758558
0.190391378766
-0.0667895093234
-0.290358956457
-0.480110598048
-0.598518004999
-0.695494714085
-0.473543558421
-0.769546485496
-0.208457695646
0.715631274625
0.48065426603
0.488997727475
0.874995497434
1.24739822983
1.56595686409
1.89205155584
2.23637466016
2.5893719854
2.94638046176
3.30549601977
3.66366318517
4.01691107907
4.36142696235
4.6939165555
5.01155862388
5.31194150894
5.59304464269
5.85322059045
6.0911612305
6.30585634288
6.49655393496
6.66272435367
6.80402851579
6.92028935374
7.01146714896
7.07763710936
7.11897062271
7.13571351442
7.12817412251
7.09667838252
7.04156194331
6.96281112554
6.86044671068
6.7389308005
6.61203316917
6.48333195398
6.35571251751
6.23030761795
6.10657794865
5.98406046171
5.86268557455
5.74229208921
5.6223843342
5.50216998185
5.38063729761
5.25660085531
5.12874650169
4.99569702556
4.85609395977
4.70868645552
4.55242016051
4.38652148707
4.21057053596
4.02455571891
3.82890145549
3.62446196729
3.41247525932
3.19447637901
2.97217397361
2.74730165917
2.52146187409
2.2959841028
2.07182121939
1.84950011984
1.62914501585
1.41055594634
1.19338055621
0.977253411339
0.76219401594
0.548476147361
0.338105106234
0.132301696631
-0.0597602340881
-0.24251415637
-0.36824449261
-0.510966191313
-0.243599765814
-0.722914644524
-0.569048727815
1.39716542018
0.773838691207
0.834566940392
1.33977013792
1.69968056053
1.95811793015
2.21995347091
2.49827929077
2.78554085679
3.08133640993
3.38645180282
3.69902852641
4.01567833375
4.3328597638
4.64731724272
4.95611981241
5.25667056223
5.54672794581
5.8244074014
6.08815866574
6.33673174154
6.56914141569
6.7846348011
6.98266269709
7.16285551462
7.32500347419
7.46904106529
7.59503506367
7.70317545964
7.79377356621
7.86727058227
7.92430818833
7.96578497292
7.99235516911
7.99768251133
7.97741118405
7.93162929037
7.86141055264
7.76784573287
7.65168003668
7.51381368679
7.35564992057
7.17896958547
6.9857248927
6.77794205246
6.55766824305
6.32690244739
6.08751714216
5.84119213764
5.58937001805
5.33323422826
5.07371120933
4.81149735902
4.54711059228
4.2809627491
4.0134467505
3.74502866986
3.47633285703
3.20820602119
2.94174752157
2.67829517726
2.41936374445
2.16654008625
1.92135212747
1.68512924102
1.45889222797
1.24326916298
1.03851407027
0.844490794737
0.660981047475
0.487326709684
0.324036983244
0.16930181052
0.0296880385731
-0.10786828467
-0.191078242547
-0.330927189633
0.0385340945821
-0.631173441322
-0.950153158809
2.39063892471
1.21040650174
1.3309138293
1.84926024525
2.111617355
2.27918885067
2.46791213289
2.68002291896
2.90721391722
3.14986282457
3.4079575824
3.67860915845
3.95772199076
4.24117989046
4.52514094852
4.80606930426
5.08076064638
5.34636673337
5.60039781638
5.84070541267
6.06545567045
6.27310069059
6.46235081421
6.63214927038
6.78164948627
6.91019542917
7.01730459438
7.10265369652
7.16606643008
7.20750322868
7.22704993546
7.2248982486
7.20138281216
7.15752710322
7.09859333502
7.02730310009
6.94496201279
6.85285846968
6.75200774359
6.6428225356
6.52528243594
6.3992427789
6.26454591214
6.12101584183
5.96847991559
5.80682607522
5.63605353987
5.45630040248
5.26785289276
5.07114083722
4.86672084654
4.65524917175
4.43744895054
4.21407772153
3.98590171788
3.75368258347
3.51818096562
3.28017847849
3.04051555366
2.800138897
2.56014579654
2.32181253962
2.08659142864
1.85607289139
1.63190478561
1.4157011496
1.20892063143
1.01281720713
0.828314241978
0.656246113632
0.49677670564
0.351168020841
0.217336940255
0.102637340235
-0.0110152164845
-0.0619739618552
-0.199413649836
0.30183151395
-0.553488654818
-1.33891264481
3.65871209006
1.69524616778
1.86947804672
2.30368622591
2.43071720225
2.51576410899
2.6492622424
2.81604993138
3.00628946965
3.2191165005
3.45241427187
3.70199488714
3.96323138073
4.23175551042
4.50354281243
4.7749075026
5.04251627176
5.30339874502
5.55494262501
5.79487736001
6.02125240979
6.23241390163
6.4269818478
6.60382901044
6.76206212929
6.90100578601
7.02018884018
7.1193340061
7.19834837048
7.25732141091
7.29651024
7.31636097448
7.31735639633
7.29994324188
7.26291717565
7.20592096749
7.12965131642
7.03525822979
6.92406132042
6.79737620981
6.65650866367
6.50282356639
6.33773668608
6.16263172825
5.97878261127
5.7873138821
5.58918749043
5.38520458531
5.17602157285
4.96218050901
4.74414942253
4.52236602813
4.29727844789
4.06937784403
3.83921953933
3.60743135387
3.37471081501
3.14181577023
2.90955373906
2.67877935284
2.45039941445
2.22538886336
2.00480405069
1.78979398959
1.58157691411
1.38141889249
1.19054619413
1.01011843921
0.841064964566
0.684327720654
0.540095877157
0.409776943816
0.290712145648
0.191171395009
0.088618166814
0.0556028847173
-0.0977434826233
0.534789175148
-0.506460805692
-1.72359057067
5.1684520958
2.15948169633
2.40693361894
2.69361166357
2.69046585027
2.71785925505
2.81548524953
2.9533548735
3.12107005059
3.31578559023
3.5332486761
3.76829159647
4.01600023234
4.27192021226
4.53198568764
4.79248242841
5.05004213173
5.30163687875
5.54456775842
5.77644978702
5.99519490368
6.19899424453
6.38630071874
6.55581267724
6.70645916328
6.83738682306
6.94794872907
7.03769436867
7.10636213149
7.15387100741
7.18032036952
7.18599341694
7.17145884058
7.13783100184
7.08664604455
7.0188509589
6.93537751656
6.83721527572
6.72529959851
6.60045735282
6.46343855049
6.31499266203
6.15592036701
5.98707783333
5.80935837686
5.62367190013
5.43092262325
5.23198259595
5.02766545265
4.81870769724
4.6057626542
4.38940894995
4.17017273724
3.94856026262
3.72509559299
3.50035632048
3.27500067846
3.04978209217
2.82554619865
2.60322298944
2.38380842609
2.16835513713
1.95795683695
1.75375709614
1.55691774316
1.36863522183
1.19005351924
1.0222699192
0.866131399057
0.722521120375
0.591402497804
0.473958964823
0.366599357548
0.2780479359
0.181007502998
0.157807392259
-0.0243026369892
0.735221448617
-0.48309795077
-2.06870493471
6.88402652078
2.5471299757
2.92415391938
3.02793954271
2.92303843081
2.91647515723
2.99102712268
3.11011396138
3.26366746022
3.4466488964
3.65311881083
3.87733407666
4.11429605525
4.35960649926
4.60930579635
4.85980445964
5.10785173607
5.35051341552
5.58515421533
5.8094233362
6.02124151218
6.21878876788
6.40049285786
6.56501860352
6.71125833139
6.83832325871
6.94553619171
7.03242446869
7.098715481
7.14433060364
7.16938855549
7.1741976385
7.15925007402
7.12508123299
7.07194166987
7.00049171489
6.911670696
6.80659673258
6.6864909945
6.55261097806
6.40621056563
6.24852717808
6.08077436523
5.90412560693
5.71969560282
5.5285286422
5.33159391958
5.12978291543
4.92390650675
4.71469285588
4.50278820577
4.28876276103
4.07312372249
3.8563358375
3.63884986324
3.42113487132
3.20370971166
2.98717107684
2.77220038983
2.55957441577
2.35014924326
2.1448592661
1.94468466209
1.75067411393
1.56388393574
1.38543612877
1.21639586914
1.05782390954
0.910460889172
0.775161797856
0.651654906437
0.540775611686
0.438086761467
0.352715636121
0.253560196868
0.229639086849
0.0138138681586
0.89581232699
-0.487764190825
-2.3500022118
8.74738068231
2.8156269462
3.42381873427
3.32605711393
3.15596840266
3.13056881495
3.18797617942
3.29326080014
3.43628560151
3.60973764074
3.80643503438
4.02029274455
4.24630092276
4.48017306371
4.71812394925
4.9567600554
5.19301642039
5.42411637075
5.64754666887
5.86104224358
6.06257604649
6.25035140989
6.42279580207
6.5785553602
6.71649008862
6.83566906163
6.93536649837
7.01505584529
7.0744084198
7.11327941272
7.13172412991
7.12994824699
7.10852192057
7.06837252025
7.01005430026
6.93429871647
6.84198466648
6.73408808973
6.61165432782
6.4757808521
6.32760660984
6.16830768239
5.99909030359
5.82117266071
5.63575755938
5.44400386416
5.24700200948
5.04575511771
4.84116631045
4.63403324981
4.42505019148
4.214817323
4.00385746533
3.79263707864
3.58159364964
3.37116417965
3.16181143754
2.95405554264
2.74846850144
2.54570092523
2.34645597519
2.1515110381
1.96165668258
1.77776914831
1.6006991323
1.43136247185
1.27062309116
1.11936410924
0.977905181637
0.846961818714
0.725803650501
0.614351534406
0.507526290313
0.414327255703
0.304064299541
0.259072137061
0.0216933571194
1.0161667785
-0.547693939974
-2.54830051746
10.691206897
2.94483251771
3.9224397508
3.60364565815
3.40259348471
3.36378940047
3.40614626553
3.50020346017
3.63425602433
3.79880693561
3.98576954944
4.18884105237
4.40305451313
4.62429735818
4.84902824221
5.0741173759
5.29674940766
5.51436559448
5.72463204536
5.92542379496
6.11481750268
6.29108856176
6.45271022351
6.59835347154
6.72688700516
6.83737653412
6.92908423425
7.00146486275
7.05416711357
7.08701638044
7.10004361561
7.0934104695
7.06771765515
7.02363515252
6.96154136514
6.88213720186
6.7863257149
6.67513144656
6.54966424637
6.41109680941
6.2606445913
6.09955023998
5.92907139331
5.75046644745
5.56497549801
5.37379790392
5.17806906259
4.97883867632
4.77705258215
4.57354135114
4.36901739697
4.16408123974
3.95923952232
3.75492594742
3.5515325524
3.34943954835
3.1490370307
2.95077121563
2.75510912241
2.56259196853
2.37377623244
2.18930636368
2.00978160406
1.83587038408
1.66830202208
1.50761172466
1.35440434294
1.2094279311
1.07189137506
0.941984450817
0.818395716005
0.69911640636
0.579396748455
0.465632749538
0.334258806204
0.240054468294
0.0297087616098
1.09524377251
-0.701859401281
-2.65435463562
12.6463326128
2.93494231972
4.43992598101
3.86813906009
3.66639448789
3.61319739597
3.64210321028
3.72683153222
3.85267806255
4.00832853821
4.18504325064
4.37640626398
4.57757739567
4.78469843042
4.99454071941
5.2042934805
5.41143556854
5.61366314642
5.80885336391
5.99504919783
6.17045595178
6.33344344182
6.48255057799
6.61649035613
6.7341543979
6.8346161138
6.91713333504
6.98114698649
7.02628485471
7.05234334864
7.05932481958
7.04734289295
7.01706026488
6.96914339064
6.9039551936
6.82214130815
6.72454452624
6.61212035104
6.48591057775
6.34703745041
6.19669240913
6.03611907131
5.86659479709
5.68941063161
5.50584819119
5.31715398858
5.12451292604
4.92902351266
4.73167584674
4.5333365801
4.33474205668
4.13649935299
3.93910573407
3.74296459674
3.54842112001
3.35579453414
3.16538982977
2.97757732238
2.79270172345
2.61120286203
2.43347222888
2.26001559702
2.09131269572
1.9276278521
1.76994918451
1.61811481578
1.47208988857
1.33288272955
1.19831736804
1.06677382719
0.935552939706
0.800582238728
0.657846923093
0.510504101773
0.344590920734
0.18676139047
0.0716570323437
1.06364067906
-0.924470187862
-2.66645865125
14.5508728731
2.80365235175
4.99258255204
4.11883123561
3.94548553788
3.8734446484
3.89154631207
3.96859319457
4.08670250658
4.23326014212
4.39905585766
4.57769413829
4.76457846219
4.95619767011
5.14970295949
5.34264912416
5.5328416603
5.71825546993
5.89699762543
6.06729546156
6.22749815309
6.37608459596
6.51167341271
6.63303295662
6.73909002212
6.82893686813
6.9018366296
6.95722586144
6.99471948443
7.01410086215
7.01535276329
6.99859112471
6.96445605654
6.91348094384
6.84597849804
6.76256147737
6.66405182351
6.55138019602
6.42555614428
6.28766713468
6.13887258769
5.98039045612
5.81348150697
5.63943156631
5.45952960414
5.27504122051
5.08717886646
4.89707363506
4.70574795487
4.51409676306
4.32287728246
4.13270156432
3.94406177307
3.75733435533
3.57282422402
3.39079818104
3.21147425636
3.03517281041
2.8621106484
2.69264018607
2.52703537105
2.36557132081
2.20900194463
2.05650658225
1.90978714319
1.76876488719
1.63161818598
1.49910451298
1.3675475955
1.23236120543
1.0877587548
0.928268179199
0.751791000035
0.561146827684
0.350804296936
0.146000054466
0.137930883
0.860410160057
-1.1601027545
-2.58945471524
16.3546789863
2.579744991
5.58852581829
4.34967329533
4.23672519079
4.13939269708
4.1507205502
4.22140512654
4.33214950805
4.46939257432
4.62359768691
4.78856008924
4.96005529932
5.13500883172
5.3110095177
5.48601187056
5.65816740344
5.82574089845
5.98707655827
6.14059177923
6.28478517514
6.4182504219
6.53969166427
6.64793818009
6.74195691036
6.82086316701
6.88392826765
6.93058647194
6.96043970485
6.97325965754
6.96901883294
6.9478696099
6.91043728362
6.85710786385
6.78817529968
6.70421521641
6.60599650016
6.49439088515
6.37035094922
6.23491231469
6.08918873067
5.93435938247
5.7716543565
5.60233873871
5.42769252389
5.24898495696
5.06744218971
4.88421801351
4.70036031317
4.51678910179
4.33428466355
4.1534638458
3.9748216841
3.79871097521
3.62540194862
3.45512572942
3.28802806526
3.12438974355
2.96435831524
2.80818276569
2.65629845088
2.50822097696
2.36575382928
2.22814051241
2.09559746435
1.96872074892
1.84461863061
1.72136990517
1.59272690088
1.45090049602
1.28737038097
1.09704313645
0.8820747108
0.648543918212
0.395682360271
0.161539335722
0.169923336369
0.462104009787
-1.33774391648
-2.43235633615
18.0212616115
2.29697759186
6.22669747376
4.55299541344
4.53783226874
4.40657624647
4.41634712943
4.48148162802
4.58525013433
4.71299867497
4.8550400528
5.005550973
5.16079681911
5.31821723457
5.47588367418
5.63217285524
5.7855919324
5.93469901669
6.07807632005
6.21433182936
6.3421145769
6.46013461288
6.56718359843
6.66215396809
6.74405485958
6.81202672526
6.86534985786
6.90345875516
6.92593423814
6.93254199679
6.92317018681
6.89812228646
6.85808005145
6.80310925904
6.73354138165
6.6499516882
6.55305591437
6.44365630042
6.32263661705
6.19096660976
6.04969741142
5.89995083747
5.74290755409
5.57979386452
5.41186393957
5.2403765157
5.06655846566
4.89157833899
4.71650454118
4.54228081367
4.36971838194
4.19944200638
4.0319626811
3.86761772487
3.7066629906
3.54927492496
3.39563916002
3.24594907246
3.10053898866
2.95916308817
2.82336743891
2.69275179022
2.56801237803
2.44963299391
2.33683612883
2.22911917749
2.12258180439
2.01164312179
1.88641824669
1.73617185078
1.5521045901
1.33254586169
1.08418422203
0.810976577906
0.504573305939
0.205344455688
0.0784964245207
-0.0667982051303
-1.37689074036
-2.20654501659
19.5272440691
1.98880500378
6.89802122912
4.72252613967
4.84779922784
4.67097318239
4.68552829
4.74532795711
4.8426245948
4.96076842577
5.09022811507
5.22573852633
5.36414924772
5.50347543297
5.64230248015
5.77944183723
5.91375962438
6.04410657045
6.16930086666
6.28813909434
6.39941922966
6.50196650046
6.59465934573
6.67645282831
6.74639814223
6.80366070968
6.84753062834
6.87744230467
6.89295910611
6.89383940599
6.87991456963
6.85163321181
6.8096491862
6.75380924611
6.6844316158
6.60209545057
6.50747728917
6.40131588979
6.28442584049
6.15770558702
6.02213306717
5.87875797894
5.7286943157
5.57311174173
5.41322119644
5.25025794055
5.08543676644
4.919935118
4.75483828549
4.5911148156
4.42961833044
4.27098499795
4.11576885041
3.96428026203
3.81684731825
3.6734532719
3.53478485565
3.40045043805
3.27194262106
3.14924221039
3.03278595369
2.92355293539
2.82174674469
2.72809297722
2.64167487561
2.56003452871
2.476414362
2.38075118808
2.25977391732
2.10143376511
1.89829802881
1.64985432901
1.35754372606
1.01086303865
0.595531450459
0.16676937334
-0.158693491196
-0.544298480244
-1.2559436752
-1.9242245385
20.8606361572
1.68485888912
7.58787503381
4.85522747231
5.16629285879
4.92871432628
4.95569597853
5.00969650451
5.10120518401
5.20969846916
5.32634080593
5.44654197276
5.56780492202
5.68876542975
5.80854147152
5.92638505465
6.04152171259
6.15309319173
6.26015118262
6.36167843344
6.45661919825
6.54391096456
6.62251624333
6.69145030812
6.74980454662
6.79676798727
6.83164094976
6.85385836098
6.86297452103
6.85874405219
6.84097531711
6.81024003827
6.76704581431
6.71113488242
6.64278283716
6.56256113198
6.47111635543
6.36913385005
6.2573650982
6.13663949056
6.00785922514
5.8719940541
5.73007865757
5.58321047492
5.43253955586
5.27926653626
5.12457986857
4.96966303408
4.81561630864
4.66343318195
4.51403047337
4.36805982298
4.22616418849
4.08855038926
3.95600668789
3.82771973083
3.70593523437
3.59055108714
3.48151163113
3.38030258007
3.2872365767
3.20405236123
3.1316872185
3.07065520868
3.01852778275
2.96924822688
2.91122370313
2.8291499383
2.70609175218
2.52745162177
2.28257503384
1.96404619554
1.56390408738
1.07506367183
0.523208696866
0.00861963861192
-0.382970719582
-0.733680869734
-1.02130139649
-1.597422076
22.0185275949
1.40900002669
8.27883476887
4.95185431372
5.49272450708
5.17606728568
5.22464394352
5.27157324422
5.35821109809
5.45705016412
5.5608304563
5.66564210907
5.76969498837
5.87227475734
5.97304046745
6.07168692125
6.16779935434
6.26080958636
6.35000098012
6.43453987581
6.51351285998
6.58596470962
6.65093742381
6.70750216396
6.75478722004
6.79200256657
6.8184584525
6.83359119549
6.83695792544
6.82831091035
6.80747664879
6.77505042494
6.73137505965
6.67615807225
6.60964821325
6.53239962489
6.44502199861
6.34814368066
6.24245013067
6.12869997752
6.00771826238
5.88039211047
5.74767075029
5.61057061839
5.47016492572
5.3276146688
5.18406912807
5.04071571815
4.89867156633
4.75897250957
4.62259856725
4.49022665656
4.36278997323
4.24003985918
4.12386075734
4.01392385181
3.91113059183
3.81630932095
3.7294870065
3.65299366153
3.58843299155
3.53831509704
3.50356584081
3.48287492151
3.46964622588
3.45127740638
3.40834237553
3.31741254432
3.15396603584
2.89598427413
2.52679975849
2.03972368162
1.44614013874
0.790778537242
0.17002131518
-0.298123377338
-0.589830400513
-0.780864273494
-0.876252605554
-1.23734710219
23.0047645993
1.17867214143
8.95312729546
5.01656983561
5.82548418709
5.40967525842
5.49051876326
5.52814869972
5.61112686435
5.70031523961
5.7913763086
5.8809198328
5.96791872186
6.05232172843
6.13433035568
6.2140835553
6.2915274951
6.3663841052
6.43816688279
6.50622240517
6.56977321617
6.62796401645
6.6799098969
6.72473215855
6.76159182154
6.78971573437
6.80842206178
6.81714624723
6.81545576757
6.80311123725
6.78002229789
6.74670315614
6.70331010127
6.64956537796
6.58570941356
6.51227073318
6.42981725176
6.33892175447
6.24020275662
6.13434407095
6.02208839496
5.90423625384
5.78164559734
5.65524748281
5.52602576374
5.39510127396
5.26357198549
5.13264319014
5.00342913664
4.87706990332
4.75461753004
4.63682225074
4.52506120735
4.41975308234
4.32191374218
4.23142969764
4.14913757561
4.07654711494
4.01529391993
3.96877756509
3.93963034987
3.93015344367
3.93901946821
3.95959950314
3.97665755373
3.96612798673
3.89589599335
3.73039186295
3.43619728871
2.99013809448
2.38974231758
1.66567076886
0.890036504582
0.172023008345
-0.371749331133
-0.685166982099
-0.828855236169
-0.888440018464
-0.914219920813
-0.854073115956
23.8278499321
1.00513231445
9.59447046385
5.05600661698
6.16155545945
5.62689876986
5.75172378257
5.77680566313
5.85769695882
5.93719888228
6.01586262754
6.09042690251
6.16071260052
6.22732581384
6.29100842242
6.35234517771
6.41164531343
6.46892084854
6.52391336802
6.57614406449
6.62496156793
6.66960083123
6.70924268255
6.74305244904
6.77022006157
6.78998463435
6.80167052072
6.80470106638
6.79865444253
6.7832604497
6.75859698786
6.72517630369
6.6828402634
6.63139020985
6.57106562402
6.5023294532
6.42568104337
6.3416355119
6.25074963865
6.15363667885
6.05095560659
5.94341857128
5.83178834692
5.71690978988
5.59965923857
5.48113592044
5.36237391412
5.24462051118
5.12892513649
5.01685744617
4.90924199897
4.80795074863
4.71400703915
4.62699532115
4.54811212065
4.47773556515
4.41770951197
4.37075443898
4.34008905553
4.32985187896
4.3423456278
4.37695658538
4.42586474184
4.4716252026
4.48461890367
4.42486948208
4.24673025408
3.90865368347
3.38560640495
2.68385977084
1.85340979263
0.989955843004
0.216087773004
-0.360083532693
-0.695146330895
-0.835282833382
-0.868472275063
-0.829278617436
-0.715416163457
-0.45640839562
24.4992143092
0.894204621916
10.1892391078
5.07813928177
6.49653300836
5.82610123876
6.00675066803
6.01514221323
6.09592026373
6.16560790174
6.23236673095
6.29237136574
6.3464381077
6.39579951422
6.44173600292
6.48528010422
6.52710579076
6.56751388252
6.60647037733
6.64366168485
6.67854844802
6.71044514965
6.7385911958
6.76219097613
6.78046069427
6.79264961594
6.798088486
6.79618155726
6.786523584
6.76872357804
6.74316779404
6.71043104257
6.66991457868
6.62153836208
6.56557520543
6.50240680401
6.43243248223
6.35609019238
6.27386459261
6.18629776421
6.09396574715
5.99749344969
5.89753877088
5.79487239292
5.69026560135
5.58478100184
5.47939282945
5.37559751218
5.27405982438
5.17756878019
5.08709082201
5.00320004268
4.92719384785
4.85873016179
4.79946026186
4.75094831251
4.7163252029
4.69958095406
4.7048409676
4.73547057528
4.79043934267
4.86156838199
4.92880723878
4.95850632236
4.90405626843
4.71287489644
4.338203615
3.75580028282
2.98035762058
2.07608000918
1.15217773921
0.336944907903
-0.266277632653
-0.621945634164
-0.775481142615
-0.813657489101
-0.785453574486
-0.675860885796
-0.50035766725
-0.0519119757662
25.0318596345
0.847273689182
10.7270191494
5.09122579427
6.82494456219
6.00678041182
6.25399846458
6.24103456102
6.3240344113
6.38364534724
6.43915494684
6.48511347147
6.52358224022
6.55635321419
6.58524841542
6.61174876548
6.63689263192
6.66126593991
6.68505314962
6.70809109842
6.72993497377
6.74996911469
6.76748585184
6.78172548129
6.79192902226
6.79735699713
6.79734762291
6.79130617931
6.77883463869
6.75954231736
6.73398049095
6.70260083693
6.66466261202
6.62009144474
6.56919513936
6.51231442066
6.44975810886
6.38187633108
6.3090603025
6.23176667398
6.15047007922
6.06571375493
5.97805093888
5.88814779394
5.79671414991
5.70482966536
5.61338323023
5.52430397741
5.43889599072
5.35906130179
5.28578007249
5.21946787392
5.16143275267
5.11223256883
5.07427664321
5.05044200959
5.0450582711
5.06279491837
5.10699247464
5.17714954202
5.26423925741
5.34706583227
5.38889562638
5.33922380468
5.1407579177
4.74384175637
4.12467242126
3.30304565051
2.3506816786
1.38267871462
0.528176541401
-0.112205507382
-0.502851939038
-0.681510410112
-0.730604441623
-0.721642308217
-0.666590505058
-0.537451019732
-0.374087507838
0.353023837051
25.439355549
0.862328793661
11.2006871354
5.10296917938
7.14074278691
6.16952201006
6.49164174898
6.45271982478
6.54048283602
6.58961229568
6.63468055654
6.66716621738
6.69076303834
6.70770465657
6.72036815676
6.73067932053
6.74003700717
6.74930609051
6.75888054853
6.76872661424
6.7784756774
6.78757601172
6.79536919001
6.80112959983
6.80412111025
6.80361667754
6.79897038493
6.78960669925
6.77514933774
6.75525711204
6.73053650422
6.70126996628
6.66669354426
6.6266997796
6.58158962181
6.53167355308
6.47719293964
6.41842799409
6.35566064071
6.28926159448
6.2195969636
6.14708926233
6.07220681465
5.99545313171
5.91779452195
5.83994125809
5.7636839158
5.69054566246
5.62145349043
5.55835215252
5.50212182901
5.4536237659
5.41439322571
5.3859553708
5.37166350665
5.37560920389
5.40269196689
5.45661649088
5.53685963567
5.63467362931
5.72811273661
5.77948430428
5.7360871581
5.53830809243
5.13420136318
4.49920200507
3.65374539753
2.67102105338
1.66659402411
0.768721743655
0.0777313002545
-0.366842219628
-0.592862728355
-0.671766447768
-0.67865719073
-0.655417424295
-0.594543844946
-0.470967166565
-0.330694866433
0.753015202579
25.7351131522
0.934950012588
11.6061691019
5.11996624241
7.43784180159
6.3158051731
6.71758489017
6.64886668929
6.7438685801
6.78201742968
6.81758019283
6.83719821436
6.84673684451
6.84868922323
6.84601786181
6.84108149621
6.83563172625
6.83080422768
6.82718972919
6.82485655719
6.82349731905
6.82262335757
6.82162292573
6.81980217196
6.81644199511
6.81082887394
6.80233723985
6.79043652879
6.77481169024
6.75523138737
6.732141804
6.7057267998
6.67526074497
6.64060529858
6.60202076296
6.55976570752
6.51399438561
6.46494470051
6.41279980315
6.35781186954
6.30024678186
6.24038541677
6.17884888952
6.11544588161
6.05225470523
5.98975857205
5.92872229208
5.87136354727
5.81856913514
5.772283213
5.73354278713
5.70362706919
5.68447854851
5.67865697226
5.69043630139
5.72449747491
5.78473671462
5.87103314106
5.97495675423
6.07523323666
6.13425923372
6.09929075816
5.90962900204
5.51170166892
4.87843610641
4.02741919587
3.02848791573
1.99406363534
1.0507640317
0.301199132882
-0.207554121949
-0.492079032361
-0.613113925554
-0.641690388815
-0.63079027276
-0.600876235691
-0.539329771184
-0.427422276281
-0.306715733197
1.14349609997
25.9319059441
1.05920149792
11.9420237522
5.14743442944
7.71059390496
6.44770784324
6.92950385127
6.82860430288
6.93290688394
6.95959203489
6.98666651691
6.99403817162
6.99040481362
6.97826912216
6.96123099258
6.94205740322
6.92284197524
6.90498185622
6.88924641149
6.8757746216
6.86431323073
6.85443982925
6.84558644126
6.83708644195
6.82822812922
6.81830960271
6.80672127691
6.79302049066
6.77694001436
6.7583931668
6.73778206736
6.71506497591
6.68954747864
6.66101917048
6.629668488
6.59572350833
6.55926565896
6.52045832516
6.47939773491
6.43622550887
6.39128078153
6.34425063716
6.29642134448
6.24764543146
6.19884962344
6.15124335406
6.10550344817
6.06389443316
6.02763893146
5.99866248392
5.97815316625
5.96780209151
5.97014800978
5.98871854307
6.02817598636
6.0923123803
6.18142972065
6.28799215227
6.39191341292
6.45721245291
6.43226042282
6.25676694535
5.87567905294
5.25848629424
4.41715898792