/*--------------------------------*- C++ -*----------------------------------*\
| =========                 |                                                 |
| \\      /  F ield         | OpenFOAM: The Open Source CFD Toolbox           |
|  \\    /   O peration     | Version:  v1806                                 |
|   \\  /    A nd           | Web:      www.OpenFOAM.com                      |
|    \\/     M anipulation  |                                                 |
\*---------------------------------------------------------------------------*/
FoamFile
{
    version     2.0;
    format      ascii;
    class       volScalarField;
    location    "1000";
    object      pa;
}
// * * * * * * * * * * * * * * * * * * * * * * * * * * * * * * * * * * * * * //

dimensions      [0 2 -2 0 0 0 0];


internalField   nonuniform List<scalar> 
6400
(
0.192505369979
0.186162362433
0.182077194222
0.182494236389
0.221006637408
0.264937606712
0.320632006872
0.400958026963
0.498078287375
0.595801168611
0.683913709718
0.759116559649
0.820967118643
0.869586143912
0.905393560491
0.929275681883
0.942498952942
0.94648268706
0.942624417308
0.932217742755
0.916422412419
0.89625547169
0.872592112931
0.846175134729
0.817629587577
0.787480410344
0.756169794606
0.724074123799
0.69151963206
0.658799369044
0.626196101753
0.594032787439
0.562771511459
0.533116657659
0.505277640265
0.475008364311
0.424804940491
0.352868460026
0.263989836497
0.16528015676
0.0615480590357
-0.0447863278477
-0.152448747506
-0.260463618123
-0.36792035665
-0.473978322036
-0.577871128414
-0.678881974824
-0.776318181038
-0.869497825539
-0.957743820426
-1.04038218544
-1.11674300814
-1.18616655052
-1.24801502117
-1.30169190209
-1.34666806908
-1.38251484429
-1.40894121599
-1.42583295164
-1.43328867039
-1.43164890736
-1.42151270037
-1.40373861114
-1.37942680643
-1.34988321567
-1.31656462186
-1.28101318516
-1.24477021347
-1.20930200155
-1.17585605811
-1.14543298583
-1.11838376823
-1.09478224693
-1.07277838326
-1.05210748595
-1.02641232853
-1.00549697072
-0.971578561978
-1.00023101881
0.132601654133
0.105442727109
0.116866418087
0.152930466793
0.237566154523
0.424184174298
0.66622088066
0.98154263005
1.37201194137
1.82001095562
2.30711273109
2.819862458
3.34777837602
3.8816177745
4.41329522463
4.93619261148
5.44516192473
5.9362940686
6.40666540708
6.85413869067
7.27720643952
7.67485825656
8.04646706283
8.39169594491
8.71042399799
9.00268910874
9.26864348099
9.50852035121
9.72260941553
9.91123928104
10.0747657643
10.2135468597
10.3279593603
10.4187143022
10.4894256831
10.5538123154
10.6342031503
10.7140688855
10.7758778861
10.8140959454
10.8283739043
10.818425185
10.7834296386
10.7224798228
10.6347864146
10.5196756618
10.3765669105
10.2049847818
10.0045898425
9.77521149761
9.51688092793
9.22986680265
8.91471593548
8.57229858668
8.20385721318
7.81105545596
7.39602296844
6.96138937523
6.51029972985
6.0464029325
5.57380570135
5.09698675423
4.62066991262
4.14965950311
3.68864699554
3.24200150862
2.81356162033
2.4064407969
2.02287082385
1.66406789462
1.3301932473
1.02024771522
0.732353759443
0.463334957826
0.210631412515
-0.0308219600873
-0.256027859836
-0.473718900644
-0.614312934689
-0.787278937818
0.0395783854436
0.0683734467429
0.101957253643
0.156495926027
0.23942950644
0.34867199117
0.489881060666
0.671684917342
0.890420324276
1.1319842634
1.38260954129
1.63271605236
1.87555185271
2.1058427566
2.31955606371
2.51394869804
2.68742817053
2.83928436161
2.96943646195
3.07824269179
3.16636028215
3.23463786936
3.28403318231
3.31555279886
3.33021106824
3.32900366356
3.31289243361
3.282797672
3.23959679318
3.18412389199
3.11717648368
3.03949157002
2.95166224577
2.85330649947
2.74056769199
2.60114278839
2.44622125537
2.29252294291
2.14547986576
2.00340293135
1.86548978378
1.73254499194
1.60579498707
1.4864021719
1.37541691251
1.27375469904
1.18213460055
1.10102182205
1.03059079691
0.970702858133
0.920892026959
0.880358481512
0.847970946116
0.82228029829
0.801546170509
0.783779558566
0.766803779545
0.748336246903
0.726091079302
0.697900632341
0.661849880627
0.616414504638
0.560589822559
0.49399636693
0.416948379982
0.330473722867
0.236281521911
0.136672226004
0.0344105992537
-0.0674717896217
-0.165838320236
-0.257846324009
-0.34092673354
-0.41415882827
-0.476264771638
-0.532323248388
-0.57401368946
-0.623663438344
-0.567310576582
-0.6928793597
-0.16609988158
0.0612066277116
0.0403293937203
0.0467666079569
0.181962488187
0.35145573296
0.53459633445
0.746155729244
0.98612530314
1.24480405287
1.51404181662
1.78874370202
2.06514946802
2.3400569542
2.61084296077
2.87552180438
3.13265779706
3.38122367052
3.62048015456
3.84989154569
4.06906726556
4.27772039589
4.47563814565
4.6626622756
4.83867683583
5.0036015345
5.15738799166
5.30001841186
5.43150230487
5.55187503459
5.661175624
5.75945137964
5.8467031365
5.92344994549
5.99142294092
6.05452757004
6.09504940993
6.11281012028
6.11239477935
6.0936782522
6.05516193432
5.99632948319
5.91736546043
5.81862628529
5.70056167707
5.56379869056
5.40918791976
5.23780695449
5.05095347668
4.85013558837
4.63705525954
4.41358124282
4.1817114998
3.94352485106
3.70112248771
3.45655967998
3.21177051891
2.96848974473
2.72817897594
2.49196574747
2.26060554167
2.03447548077
1.81360634915
1.59775407437
1.38650721278
1.17941933296
0.976156212859
0.776635878534
0.581171251681
0.390557013693
0.20623700933
0.0301993432772
-0.134472661807
-0.284908374638
-0.414975782253
-0.524960035784
-0.593746019873
-0.651038089998
-0.5215672698
-0.682139622847
-0.420457074925
0.222941263319
0.0603618883077
0.0798928334335
0.328728337677
0.557382275448
0.74843075482
0.943335548558
1.14930626234
1.36028663792
1.57309244312
1.78644758755
1.99865128665
2.2075307781
2.41094281024
2.60698569952
2.79401917507
2.97064926831
3.1357145518
3.28826944799
3.42756363792
3.55301969913
3.66421109991
3.76084130474
3.84272489653
3.90977064907
3.96196688775
3.99936814793
4.02208362052
4.0302639739
4.02409147991
4.00375108633
3.96939955768
3.92094678412
3.85834632829
3.78603449634
3.71069212299
3.63435611941
3.55890437312
3.48490733789
3.41197499595
3.3398269924
3.26840753295
3.19758566602
3.1270270263
3.05622303989
2.98453612166
2.91122659215
2.83548092407
2.75645274054
2.67331325027
2.58530573793
2.49179994943
2.39234335502
2.28670496736
2.17490712318
2.05723982323
1.9342532941
1.80672551947
1.67560473251
1.54193037432
1.40674071479
1.27097905216
1.13541262714
1.00057841443
0.866764886215
0.73403798298
0.602299025141
0.471393815231
0.341196425244
0.211834663793
0.083606349643
-0.0421813621646
-0.164697199538
-0.278563136274
-0.386451156093
-0.460818891062
-0.545255494952
-0.387680609893
-0.651023358039
-0.603778382521
0.641514116784
0.241135639088
0.293938198089
0.606729942301
0.823382541934
0.977061920226
1.13192153744
1.29584910246
1.4645246072
1.63785255936
1.81638466418
1.99912575794
2.18418580063
2.36954529914
2.55330619656
2.733739261
2.90931014245
3.07869714521
3.24079068347
3.39467909116
3.5396291183
3.67506544829
3.80055130614
3.91577099396
4.02051512926
4.11466855739
4.19820076942
4.27115869355
4.33366058168
4.38589620131
4.42812863438
4.46075167692
4.48429988001
4.49920959048
4.5011355814
4.48789716744
4.4596950381
4.41723346905
4.36112468719
4.29176737321
4.20969350561
4.11574566937
4.01098046113
3.89654795631
3.77363888797
3.64345337663
3.5071586262
3.36584220775
3.22047347698
3.0718781855
2.92072686589
2.7675379051
2.61269581061
2.45648435753
2.29913214457
2.14086649491
1.98196938974
1.82282783452
1.66396975897
1.5060775319
1.34997330402
1.19657536088
1.04682996149
0.901629941312
0.761733261631
0.627702465097
0.499864336782
0.378332980071
0.263009698875
0.15376584991
0.0502409245052
-0.0472271897885
-0.139640375298
-0.223153120848
-0.305440196959
-0.356158016356
-0.440685063225
-0.225144273161
-0.597834236199
-0.823586669064
1.24110716515
0.508178605935
0.595578424914
0.909258628174
1.06404774744
1.16179286581
1.27127910833
1.3938205931
1.52497863066
1.66530394036
1.81490596321
1.97211630804
2.13453376385
2.29972241953
2.46538458545
2.62939281689
2.7898185219
2.94495171669
3.09330200171
3.23358684067
3.3647148583
3.48576814678
3.59598498086
3.6947438274
3.78154904981
3.85601857619
3.91787338004
3.96692864449
4.00308685532
4.02633211122
4.03672876982
4.03441652372
4.01966916352
3.99318996163
3.95789922595
3.91539949844
3.86651761976
3.8120153404
3.75245410547
3.68803518807
3.61872336596
3.54442272263
3.46503022327
3.38043103475
3.2905144929
3.19520907476
3.09451145811
2.98850167694
2.87734766547
2.76130168322
2.64068945321
2.51589335507
2.38733266121
2.25544448727
2.12066942908
1.98344533451
1.84421177853
1.70342605097
1.5615884061
1.41927159796
1.27714670285
1.13599653285
0.996708970753
0.860247098099
0.727596720424
0.59970705513
0.477418364615
0.361438824731
0.252276520488
0.150381047746
0.0558134123527
-0.0307151955326
-0.110429994536
-0.179082814502
-0.247335301745
-0.279490096596
-0.363694425554
-0.0735411833061
-0.553506633059
-1.04823225078
2.00512551204
0.810491187312
0.928748576922
1.18508212841
1.25453481786
1.29941894557
1.37276699387
1.4658327433
1.57330698533
1.69486166227
1.82919626977
1.97371978142
2.12558148237
2.2820945267
2.44078646758
2.59939923553
2.75590064155
2.90849066863
3.05559587831
3.19585640177
3.32811033947
3.4513778455
3.56484589254
3.66785426329
3.75988321989
3.84054304056
3.90956538197
3.96679682331
4.012193403
4.0458202452
4.06784356223
4.07854153179
4.07819325624
4.06700419366
4.04423455712
4.00977354233
3.9640790274
3.90784292857
3.84184264542
3.76684771391
3.6836235888
3.59297184242
3.49572032301
3.39267242602
3.2845629121
3.17203649781
3.05564122458
2.93583048698
2.81297360401
2.68737475522
2.55929742621
2.4289903698
2.29671129853
2.16274527936
2.02741591158
1.89108885502
1.7541690513
1.61709547037
1.48033651452
1.34439024025
1.20979013868
1.07711514482
0.946999094313
0.820132732753
0.697249824363
0.579106096899
0.466422895282
0.359871214774
0.259977576002
0.167262852478
0.0817917455482
0.00434491393471
-0.0666386248077
-0.126369876005
-0.18807098713
-0.209818508607
-0.303842518604
0.0603431587213
-0.526946649621
-1.27451379236
2.9130180719
1.10258703198
1.26099768566
1.42146335205
1.40826114873
1.41481902634
1.46399060041
1.53831943176
1.63182496269
1.74263702203
1.86793503348
2.00437758092
2.14882847515
2.29847777787
2.45079023153
2.60347450869
2.7544731122
2.90195333225
3.04429502868
3.18007686281
3.30806242634
3.42718691382
3.53654467115
3.63537787375
3.72306654864
3.7991199057
3.86316916733
3.91496121912
3.95435429362
3.98131248361
3.99590687059
3.9983150404
3.98889589939
3.96834398894
3.93751969879
3.8969565688
3.84721381669
3.78888401015
3.72252030377
3.64860869427
3.56759165164
3.4799145298
3.3860538834
3.28651764923
3.18183343573
3.07253609173
2.95915415658
2.84219396414
2.72212439577
2.59936663244
2.47429177626
2.34722725008
2.21847130179
2.08831321534
1.95705573786
1.8250354944
1.69263702326
1.56030046011
1.42852021238
1.29783893204
1.16883872731
1.04213387331
0.918367770632
0.798211321121
0.682354300181
0.571502980865
0.466328385618
0.367460150971
0.275371522163
0.19055590183
0.112913221867
0.0430612847314
-0.0210888159224
-0.0744595279402
-0.132906543343
-0.149043790086
-0.260009948868
0.174894036395
-0.51491875418
-1.47764494228
3.94562522554
1.35233256471
1.58112297048
1.62384125214
1.54483140101
1.52754268633
1.5610417836
1.62363789542
1.70894126071
1.81334906105
1.93280365663
2.0634973266
2.20218052878
2.34605068587
2.49263187876
2.63971466254
2.78532364174
2.92769473744
3.06525771112
3.19662229165
3.32056657496
3.43602695182
3.54208923877
3.63798088961
3.72306427372
3.79683079709
3.85889615532
3.90899560924
3.94698175809
3.97281896749
3.98659001815
3.98847834188
3.97880374558
3.95785473341
3.92576658386
3.88295718931
3.82999852711
3.76756100288
3.69636875187
3.61716220775
3.53067763216
3.43764134489
3.33876535141
3.23473731077
3.12620953288
3.01379237637
2.8980514568
2.7795057638
2.65862558116
2.5358310386
2.4114926791
2.28593537004
2.15944694035
2.03229139093
1.90472618128
1.77702163608
1.64947702711
1.52243707197
1.39629896492
1.27151476608
1.14858600697
1.02805502451
0.910499242849
0.796526655099
0.686764552626
0.581873663369
0.482492324782
0.389214633526
0.302432754221
0.222667199607
0.149604701228
0.0835941839192
0.0220889957569
-0.0295900586655
-0.0891734310378
-0.106091800234
-0.235520486218
0.266029908349
-0.520818518678
-1.64397836025
5.06827557698
1.53308578522
1.88855913084
1.80184548858
1.67927601596
1.64820855295
1.67084556782
1.72569274009
1.80560462277
1.90525873
2.01970899467
2.14489712117
2.27756693377
2.41500229595
2.55485701364
2.69506362379
2.83377928389
2.96935145785
3.10029638113
3.22528537834
3.34313562283
3.45280337392
3.5533787256
3.64408127641
3.72425651393
3.79337243528
3.85101688102
3.89689372185
3.93082207195
3.95272708128
3.96265140651
3.96072127611
3.94729520788
3.92291628091
3.88788836252
3.84264265362
3.78770671363
3.72366381773
3.65113525006
3.57077143008
3.48324683949
3.38925770236
3.2895172192
3.18474401574
3.07564563758
2.96290177151
2.84715001853
2.72897496692
2.60890090918
2.48738883778
2.36483795762
2.24159147295
2.11794735937
1.99417193166
1.87051581391
1.74723197953
1.62458542024
1.50287136169
1.38242068963
1.26360705618
1.14684276943
1.03257088547
0.92126115536
0.813410635993
0.709524200809
0.610127811687
0.515802885844
0.42697634425
0.343737400537
0.266701166085
0.195057207329
0.128518713694
0.0643196981005
0.00756148770351
-0.0583094046449
-0.0886611237392
-0.226459133502
0.335135679717
-0.561804596682
-1.76136251307
6.24140473848
1.63234862356
2.19237215118
1.96478692858
1.82006513917
1.77983468244
1.79404728791
1.84337602489
1.91910389624
2.01438980517
2.12371524577
2.24292574201
2.36884348195
2.49890676173
2.63095604206
2.76311207587
2.89370302266
3.02122153287
3.14430085762
3.26170227701
3.37230868682
3.4751214856
3.56925908135
3.65395612745
3.72856301111
3.79254509921
3.84548216972
3.88706599623
3.91710111389
3.93549411255
3.94227191691
3.93753270356
3.92164995821
3.89500185616
3.85781158811
3.81049195717
3.75358142197
3.68768969881
3.6134737112
3.53162543424
3.44286150621
3.34791470434
3.24752667992
3.14243911884
3.03338202359
2.92106012945
2.80613896547
2.68923190212
2.5708894491
2.45159265292
2.33175183453
2.21171030298
2.09175636201
1.97213808727
1.85308060171
1.73480861466
1.61754675966
1.50154403903
1.38707220649
1.27443743947
1.16397393847
1.05603993123
0.950995269967
0.849226536358
0.751135851552
0.656979492444
0.567399376465
0.482527456079
0.401603647671
0.325344898213
0.252256996037
0.180666421267
0.108347366014
0.038741398347
-0.0401872825359
-0.0998282027532
-0.21439685059
0.375557041216
-0.654985061912
-1.82436372382
7.42388486034
1.64921467132
2.50356295452
2.11718347426
1.96970724994
1.9211144158
1.92875638302
1.97405533779
2.04607022692
2.13683044486
2.24050085292
2.35295424507
2.4711723984
2.59280849884
2.71593272872
2.83888385824
2.96018239931
3.07848254302
3.19254808918
3.30124213948
3.40352413209
3.49845056257
3.58517722819
3.66296181567
3.73116626943
3.78925847121
3.83681354702
3.87351328625
3.8991479738
3.91360721124
3.9168996105
3.90910369862
3.89061306905
3.86179594472
3.82287204825
3.77422385234
3.71635236563
3.64982554686
3.57526076467
3.49332128533
3.40471023732
3.31016099454
3.21042639253
3.10626675333
2.99843602457
2.88766645394
2.77465278006
2.66003746719
2.5443976878
2.42823630173
2.31197845497
2.19597100056
2.08049548319
1.96578252567
1.85202851843
1.73942977926
1.62816490836
1.51843427596
1.41044601346
1.30444451625
1.20067607541
1.0994380819
1.00097462975
0.905539011654
0.813622701462
0.724835119217
0.639955724778
0.558964885493
0.479980451763
0.402857468464
0.32500918943
0.243596690962
0.156800061823
0.0662782431638
-0.0343068966054
-0.129190651016
-0.183630823599
0.345628578618
-0.782688631462
-1.83178950536
8.57892656906
1.59333910737
2.83157508639
2.25929026084
2.12780611372
2.06937806806
2.07255410652
2.1148599758
2.18327061555
2.26914703011
2.36652432803
2.47141670284
2.58104500829
2.69333011134
2.80660472928
2.91944514557
3.03057589309
3.13882036844
3.24307887646
3.34232194503
3.43559135098
3.52200489392
3.60076217817
3.67115035836
3.73254904771
3.78443433096
3.8263816152
3.85806746824
3.87927177404
3.88987477093
3.88987285445
3.8793535644
3.8586879132
3.82815810335
3.7879635777
3.73847067487
3.68016465046
3.6135951415
3.53935899816
3.45809878183
3.37049889874
3.2772777822
3.1791786582
3.07695889177
2.97137678421
2.863175815
2.75306697766
2.64171205628
2.52970774207
2.41757398812
2.3057498725
2.19458550397
2.08435773352
1.97528292631
1.86752971603
1.76127447392
1.65665091017
1.55382548901
1.45293847692
1.3542058544
1.25776663183
1.1639309493
1.07286381378
0.984417704757
0.899575993155
0.817724009266
0.738735460421
0.662385197448
0.585763741476
0.506386027264
0.419942659278
0.323222011974
0.215483266416
0.0985577506167
-0.0290833304082
-0.149139691736
-0.146760784858
0.211851375444
-0.906750086698
-1.78645667016
9.67650714515
1.48094035131
3.18129450658
2.38829049069
2.29304128042
2.22181712185
2.2231152168
2.26306671632
2.32783971531
2.40845232067
2.49894046875
2.59557068323
2.6958727492
2.79807686315
2.90080110848
3.00286995808
3.10321605836
3.20083307099
3.29475807977
3.38406958246
3.46789297525
3.54540938528
3.61586472921
3.67857830684
3.73294994213
3.77846619059
3.8147042271
3.84133670733
3.85813151529
3.86495980258
3.86179714867
3.848770796
3.82625907401
3.79442798365
3.75347784045
3.70375931225
3.64572377678
3.57988220884
3.50679562371
3.4270751151
3.34137790952
3.25039970659
3.15486602807
3.055522496
2.9531224637
2.84841180137
2.74210977032
2.63489156325
2.52736934602
2.42007760845
2.31347161101
2.20790543733
2.10365528922
2.00092805463
1.89986498603
1.80064005358
1.70334094747
1.60813104191
1.51507427494
1.42447300453
1.33631194325
1.25086182122
1.16879135753
1.08966380821
1.01410592019
0.941782919517
0.871454154415
0.80124304212
0.726811253875
0.643119787295
0.544564180333
0.428611435064
0.297194397136
0.154083133918
-0.000624932847549
-0.142336569001
-0.147896460058
-0.0329499079925
-0.983325046799
-1.69361854697
10.6946132198
1.33135266666
3.55251030819
2.50044279929
2.46445494227
2.37589622012
2.37834550562
2.41617105829
2.47726527877
2.55229352035
2.63541185224
2.72324350093
2.81368100578
2.90529438488
2.99700164783
3.08788010881
3.17707030201
3.26373417652
3.34704356392
3.42618362038
3.5003629372
3.56882644061
3.63086728321
3.68583817193
3.73316045222
3.77233250916
3.80293423271
3.82463604056
3.83719083599
3.84046420529
3.8343766625
3.81915087403
3.7951899412
3.76247811333
3.72123258431
3.67180782194
3.6146274868
3.55016289655
3.47893452485
3.40151405626
3.3185209614
3.23061635469
3.13849623263
3.04288339234
2.94451602108
2.84413396751
2.7424573089
2.64016996121
2.53789715164
2.43618575458
2.33551319032
2.23623988623
2.13864718878
2.04294239998
1.94925043476
1.85775691866
1.76851008672
1.68176240612
1.59746000765
1.51603236276
1.43800788976
1.36336521108
1.2927203862
1.22608030301
1.16344367007
1.10398694522
1.04527841521
0.983032423611
0.910670688338
0.821246888211
0.709514002553
0.575209225312
0.422858073033
0.254636991355
0.0651822785873
-0.123074456391
-0.22256135779
-0.330627729088
-0.961952204908
-1.55996626724
11.6189217317
1.16390653418
3.94046789128
2.59270906191
2.64164999424
2.52922613491
2.53633656141
2.57187562284
2.62934104657
2.69855705253
2.77397263948
2.85265242604
2.93288753823
3.01360864436
3.09404166589
3.17351749203
3.25138238364
3.32696364986
3.39956538023
3.46847750908
3.53299071333
3.59241319997
3.64608505272
3.69339235663
3.73377818481
3.76675295222
3.79190043143
3.80888892465
3.81746134188
3.81747674788
3.80883418271
3.79182729147
3.76680668549
3.73367302658
3.69261959751
3.6439991266
3.58821672152
3.52571124269
3.45696598968
3.3825130349
3.3029299383
3.2188354873
3.13088600495
3.03977057328
2.94620115806
2.85090318168
2.75458981638
2.65794975107
2.56162032168
2.46615932694
2.37207424501
2.27973481962
2.18944130064
2.10139150355
2.0157498549
1.93273767452
1.85238838845
1.77504831001
1.70125082452
1.63122869124
1.56546549269
1.50443287879
1.4486466664
1.39837740775
1.35319711688
1.31096950792
1.26696688575
1.21402322668
1.1435013852
1.04797710407
0.923593501073
0.770984529907
0.591779800761
0.380452463944
0.128833780461
-0.134717652014
-0.347172857401
-0.567061141487
-0.89036266207
-1.39268685018
12.4418275151
0.995876521941
4.33725308347
2.66379466864
2.82449308621
2.67945997699
2.69538642973
2.72809261829
2.78212633247
2.84539224401
2.91292503623
2.98227513073
3.05215317095
3.12186374612
3.19094368273
3.25897638259
3.32551152842
3.39003953876
3.45199489865
3.51077071301
3.56573846757
3.61626850162
3.66174642223
3.70159068803
3.7352652308
3.76229207443
3.78225963764
3.79483539022
3.79975783674
3.79688216528
3.78609667972
3.76774817305
3.74209033208
3.70898523649
3.66860444165
3.62129317875
3.56743804878
3.50744660738
3.44176552691
3.37088750933
3.29534738505
3.21571861202
3.13261204329
3.04667547906
2.95858481604
2.86904423232
2.77875194658
2.68839908152
2.59863602041
2.51002949869
2.42313277013
2.33831888023
2.25594808115
2.17614107596
2.09933087188
2.02559801786
1.9555937712
1.88964368171
1.82797483973
1.7714058484
1.72059111735
1.67658556547
1.64024432784
1.61161105289
1.58888135577
1.56732429992
1.53877876245
1.49286938701
1.41894253744
1.30854847699
1.15634787579
0.9590939974
0.713358747803
0.416841372444
0.0859464823894
-0.223341233932
-0.461849399475
-0.661916924884
-0.804346721977
-1.19887955392
13.1611024513
0.841311089542
4.7333219913
2.71445560616
3.01261220413
2.82430961643
2.85402728881
2.88292648908
2.9339068194
2.99115534538
3.05077062303
3.11076814594
3.17029207056
3.22902782795
3.28682280428
3.34351154037
3.39884580402
3.45247811922
3.50397232422
3.55282319825
3.59848143187
3.64037723799
3.67793901793
3.71061558394
3.73788987068
3.75929434312
3.77442232284
3.78294099135
3.78459203127
3.77922845033
3.76676696816
3.74752462266
3.72165692297
3.68901849615
3.64977299613
3.60425781304
3.55284030089
3.49589666814
3.43383503817
3.36710547535
3.29619659972
3.22163317631
3.14397630445
3.06382842512
2.98182085524
2.89863370541
2.81494355218
2.73144156325
2.64879591823
2.56759067618
2.48843890787
2.41168657579
2.33795217921
2.26697536298
2.20010703687
2.13750094358
2.07900567901
2.02567629656
1.97795153257
1.93730485778
1.90517253455
1.88308114487
1.8716285933
1.86934629865
1.87124060915
1.86801507964
1.84631347338
1.79079605328
1.6863640559
1.52040730647
1.28445375703
0.976889066321
0.6081288255
0.209198188971
-0.160363346462
-0.432415736818
-0.594735991768
-0.692390199094
-0.743681547305
-0.985167598982
13.7785438531
0.710627550042
5.11888639234
2.74728955876
3.20499679896
2.96170512463
3.01102916681
3.03465135232
3.08316737296
3.1343727036
3.18616725263
3.23691812734
3.28622156623
3.33414443333
3.38084246602
3.42640063129
3.47077263019
3.51377327377
3.55509487119
3.59433205915
3.6310122032
3.66462145683
3.69462688779
3.72050506919
3.74175541066
3.75791943798
3.76859493948
3.7734460539
3.77221737414
3.76476805112
3.75105935044
3.73137095537
3.70573675095
3.67403221995
3.63641702632
3.59320508632
3.54473538784
3.49135418136
3.43343457835
3.37138519261
3.30564687435
3.23669302729
3.1650299547
3.09121250328
3.0158199871
2.93950722836
2.86292415546
2.78676904968
2.71171605231
2.63839899205
2.56756798222
2.49939950227
2.43509541164
2.37466727292
2.31873615067
2.26780188049
2.22190075037
2.18265110216
2.15143757323
2.13052424062
2.12188237684
2.12668044258
2.14361239367
2.1672369451
2.18643213253
2.18428583125
2.13949615884
2.02972706226
1.83557197239
1.54577749561
1.16363447556
0.713938876077
0.246032311028
-0.172903216926
-0.478546388589
-0.646208347748
-0.718764092566
-0.743512523966
-0.758729256425
-0.757508528075
14.2987445076
0.610714331489
5.4849541043
2.766214581
3.39980557307
3.08999901419
3.16534455001
3.1816922915
3.22857351747
3.27371617193
3.31790365365
3.35961555754
3.39893820446
3.43631226221
3.47219936873
3.50693489309
3.54067529411
3.57339823498
3.60492287819
3.63494106092
3.66305271543
3.68879377841
3.71166505515
3.73116847837
3.74681752557
3.75816315219
3.76480902464
3.76640789931
3.76271257279
3.75351398753
3.73892389642
3.71926132748
3.69429966545
3.6639909542
3.62851140181
3.58813204179
3.54314159053
3.4938461776
3.44058173142
3.38371710231
3.32364631704
3.26079234959
3.19560453414
3.1285906395
3.06026859184
2.99127758369
2.9222311293
2.85385660856
2.78679524865
2.72189544046
2.6600005197
2.60173627795
2.5479153442
2.49845492852
2.45396095253
2.41527173522
2.38343597017
2.36082866816
2.34976728478
2.35296264761
2.37186697951
2.40531866223
2.44717347069
2.48444831598
2.49649993191
2.45665681802
2.33631069521
2.11163720891
1.77162147642
1.32668527606
0.814680282918
0.299124824068
-0.14608463986
-0.464110291677
-0.640800828786
-0.710606143307
-0.719720667845
-0.670752097264
-0.548280045082
-0.521113670852
14.7280773945
0.545343038519
5.82399248223
2.77584528105
3.59439778352
3.20813330685
3.31601065707
3.32262839532
3.36895801638
3.40798748378
3.44488592075
3.47784251434
3.50750920052
3.534680802
3.56012368161
3.58442375307
3.60794137821
3.63081696879
3.65299328459
3.67425576522
3.69427026458
3.71261418089
3.72881748199
3.74240589644
3.75290532898
3.75988116097
3.76294327985
3.76173991244
3.75602961741
3.74556368376
3.73056868186
3.71133661857
3.68748257897
3.65899760724
3.62608822599
3.58899712402
3.54796024281
3.50323367395
3.45510415477
3.40389324677
3.34994407243
3.29362840678
3.23533130385
3.17552268056
3.1146573636
3.05335759138
2.99218942625
2.93207177412
2.87338455795
2.81780686201
2.76607613155
2.71811110769
2.67491077744
2.63656202053
2.60414964162
2.57919634589
2.56382125853
2.56114881292
2.57396065283
2.6042372046
2.65074251431
2.70681866777
2.75783045871
2.78021912259
2.74306910488
2.61339407927
2.36462085775
1.98707928981
1.49724738187
0.941891085156
0.391965602631
-0.076110578109
-0.407660413521
-0.592311631143
-0.66513180857
-0.675685371352
-0.641255864874
-0.528695537676
-0.345229354187
-0.28045603327
15.0738952447
0.51572335952
6.13024665021
2.78090784444
3.78552980153
3.315714447
3.46204275507
3.4562189222
3.50330448102
3.53610894938
3.56613106654
3.59066832392
3.61107224639
3.62845375587
3.64388602104
3.6582046105
3.67197469069
3.68549733849
3.69883392444
3.71185899599
3.7242942004
3.73574910767
3.74578022365
3.75393615873
3.7597558437
3.76282753638
3.7627683195
3.75923492839
3.75199713642
3.74079887989
3.72592499508
3.70755294293
3.68525613823
3.65903207868
3.62910666768
3.59570884747
3.55903343487
3.51929092478
3.47671352973
3.43156781011
3.38413283877
3.33473016769
3.28367940558
3.23139554114
3.17828590734
3.12502298692
3.07203169226
3.02068067129
2.97159853925
2.92582616691
2.8841856337
2.84660910073
2.81420595902
2.78763446951
2.76865003735
2.75960344792
2.76352026879
2.78379766656
2.82244294805
2.87848436469
2.94486222647
3.00600355534
3.03640743229
3.00246096504
2.86824860063
2.605441347
2.20497201263
1.68677448898
1.1023340056
0.526014635275
0.034577180387
-0.318468203731
-0.521224209936
-0.603269848856
-0.615289604212
-0.596063986387
-0.537231350713
-0.40447202672
-0.23556376338
-0.039316918744
15.3439364326
0.521092312729
6.39978999277
2.78577888775
3.96964223803
3.41298567252
3.60235501496
3.58144268954
3.63072410222
3.65712054523
3.68076387172
3.69724931061
3.70883903243
3.71689543488
3.72280622798
3.72765332355
3.7322066673
3.73692296543
3.74197617238
3.74732433188
3.75273031951
3.7578282905
3.76220084997
3.76541877401
3.76703834715
3.76668036326
3.76396733621
3.75858525275
3.75032765417
3.73894619876
3.72467236787
3.70758362183
3.68727252483
3.66374859779
3.6372379416
3.60794626459
3.57602633291
3.54164969973
3.50498944131
3.46626115419
3.4256778774
3.38348857007
3.33995981898
3.29544152565
3.25039994849
3.20545696609
3.16147902597
3.11947338294
3.08002299205
3.04410831956
3.01248493392
2.98554636061
2.96462122054
2.95103163627
2.94728254885
2.95649278184
2.98204972414
3.02641343024
3.08865231826
3.16189675372
3.2302200046
3.2673683961
3.23830644233
3.10538703268
2.83871090752
2.42855147099
1.89522520471
1.29119350438
0.691412263307
0.172710396325
-0.210799104902
-0.444329584011
-0.551626728574
-0.577777075003
-0.565917611485
-0.535639819471
-0.469716679097
-0.341794051475
-0.198667786137
0.199122805239
15.5458929312
0.559272591735
6.63039276477
2.79418442779
4.14316799759
3.50071504775
3.73573005232
3.69753254497
3.75042663363
3.77018261047
3.78801391796
3.79683028286
3.80009980677
3.79933732915
3.79626155308
3.79219317982
3.7881054842
3.78460230361
3.78196458325
3.78022581892
3.7791714098
3.77845744054
3.77769198698
3.77646846899
3.77436986382
3.77105320855
3.76614080821
3.75938910744
3.75062931038
3.7395874528
3.7263796796
3.71100383061
3.69311368046
3.67272880916
3.65005523889
3.62527001194
3.59847395204
3.56981028777
3.53939673736
3.50737925812
3.47391102978
3.43915004943
3.40346491054
3.3668491646
3.33035145011
3.29439028381
3.25940252935
3.22666152613
3.19677166102
3.17079887379
3.1495584291
3.13387785293
3.12543645032
3.12630375096
3.13965939345
3.16891380271
3.21662288151
3.28232265951
3.35945016852
3.43258551104
3.47561187447
3.45327586235
3.3270125395
3.06541370915
2.65677976412
2.11933041441
1.50352230989
0.882886962918
0.334231961138
-0.0858530999753
-0.357467385069
-0.498007114131
-0.547151245707
-0.546538359724
-0.524975579249
-0.489688187347
-0.423409503148
-0.307138975753
-0.18360528303
0.432172963564
15.6871219054
0.627178483299
6.82129127735
2.80905490309
4.30280488047
3.58002772328
3.86083822269
3.803988085
3.86169155396
3.87458236466
3.88721112548
3.88874705255
3.88422745988
3.87518379412
3.86369329484
3.85130185031
3.83918262581
3.82807518859
3.81836353737
3.81014424059
3.80320517913
3.79722866218
3.79184370668
3.78667410908
3.78133815156
3.77551289487
3.76883218703
3.76120533095
3.75241613476
3.74218007697
3.73053279747
3.71728717999
3.70226133203
3.68548083289
3.6670680153
3.64716688839
3.62583932698
3.60318819585
3.57928307653
3.55420284876
3.52815076177
3.50091569912
3.4733217453
3.44529747958
3.41725146387
3.39001319481