/*--------------------------------*- C++ -*----------------------------------*\
| =========                 |                                                 |
| \\      /  F ield         | OpenFOAM: The Open Source CFD Toolbox           |
|  \\    /   O peration     | Version:  v1806                                 |
|   \\  /    A nd           | Web:      www.OpenFOAM.com                      |
|    \\/     M anipulation  |                                                 |
\*---------------------------------------------------------------------------*/
FoamFile
{
    version     2.0;
    format      ascii;
    class       surfaceScalarField;
    location    "1000";
    object      phi;
}
// * * * * * * * * * * * * * * * * * * * * * * * * * * * * * * * * * * * * * //

dimensions      [0 3 -1 0 0 0 0];
oriented        oriented;


internalField   nonuniform List<scalar> 
12640
(
2.36527021465e-05
-2.36527021372e-05
3.4229022966e-05
-1.05763208836e-05
3.70847889982e-05
-2.85576610058e-06
2.75297884603e-05
9.5550004804e-06
5.39809980597e-06
2.21316885863e-05
-2.71136664143e-05
3.25117661269e-05
-5.95387672442e-05
3.24251007406e-05
-9.12559600486e-05
3.17171927146e-05
-0.000122394910123
3.11389499854e-05
-0.000152680857804
3.02859475946e-05
-0.000181821450921
2.91405930338e-05
-0.000209590753533
2.77693025313e-05
-0.000235836266552
2.6245512943e-05
-0.000260470639029
2.46343724035e-05
-0.000283459469125
2.29888300259e-05
-0.000304808985096
2.13495159031e-05
-0.000324554955482
1.97459703201e-05
-0.000342753317851
1.81983623044e-05
-0.000359472621647
1.67193037326e-05
-0.000374788179284
1.53155575737e-05
-0.000388777718519
1.39895391721e-05
-0.000401518289199
1.2740570617e-05
-0.000413084175622
1.15658863588e-05
-0.000423545586265
1.04614105789e-05
-0.000432967924039
9.42233770882e-06
-0.000441411474879
8.44355077345e-06
-0.000448931385379
7.51991043157e-06
-0.000455577828851
6.64644340233e-06
-0.000461396282471
5.81845354623e-06
-0.000466427855356
5.03157281083e-06
-0.000470709620831
4.28176539707e-06
-0.000474274920404
3.56529949305e-06
-0.000477153586019
2.87866553037e-06
-0.000479371901236
2.21831513072e-06
-0.000480952233717
1.58033238993e-06
-0.000481913138254
9.60904445071e-07
-0.000482267929904
3.54791552986e-07
-0.000482025709726
-2.42220274927e-07
-0.000481194738591
-8.30971235736e-07
-0.000479787083223
-1.40765546823e-06
-0.000477818857312
-1.96822601451e-06
-0.000475305846176
-2.51301124016e-06
-0.000472262303728
-3.04354255369e-06
-0.00046870053912
-3.56176471427e-06
-0.000464630796897
-4.06974233117e-06
-0.000460061245141
-4.5695518647e-06
-0.000454998015689
-5.0632295622e-06
-0.000449445285671
-5.55273012751e-06
-0.000443405405756
-6.03988002804e-06
-0.000436879085278
-6.52632058927e-06
-0.000429865643976
-7.01344141695e-06
-0.000422363336411
-7.50230767929e-06
-0.000414369749212
-7.99358731603e-06
-0.000405882263323
-8.48748600532e-06
-0.000396898564038
-8.98369940377e-06
-0.000387417171214
-9.48139294315e-06
-0.000377437951469
-9.97921986613e-06
-0.000366962564361
-1.04753872296e-05
-0.000355994786365
-1.096777812e-05
-0.000344540650149
-1.14541363391e-05
-0.000332608332405
-1.19323178695e-05
-0.000320207722343
-1.24006101869e-05
-0.000307349604512
-1.28581179586e-05
-0.000294044394222
-1.33052104154e-05
-0.00028030037289
-1.37440214608e-05
-0.000266121380192
-1.41789928239e-05
-0.000251503931421
-1.46174488987e-05
-0.000236433762211
-1.50701693356e-05
-0.000220881857052
-1.55519052866e-05
-0.000204800083139
-1.60817740381e-05
-0.000188116770959
-1.66833123062e-05
-0.000170732794994
-1.73839760913e-05
-0.000152519154895
-1.82136402265e-05
-0.000133319601364
-1.91995536609e-05
-0.000112968086254
-2.03515152428e-05
-9.13328814901e-05
-2.16352049027e-05
-6.83771626627e-05
-2.2955718961e-05
-4.4238327153e-05
-2.4138835657e-05
-1.97997454114e-05
-2.4438581948e-05
-1.97997455357e-05
1.24364501625e-05
-3.60891527846e-05
1.03234112957e-05
-8.4632822626e-06
-9.82987961194e-06
1.7297524735e-05
-3.90561821022e-05
3.87813029369e-05
-6.71489507223e-05
5.02244571621e-05
-9.41436063688e-05
5.95064217148e-05
-0.000124208549069
6.24900433754e-05
-0.000155344017056
6.28526606307e-05
-0.000186210007603
6.20049404615e-05
-0.000216178378791
6.02543187093e-05
-0.000244870955926
5.78331700987e-05
-0.000272042398826
5.49407453597e-05
-0.000297543922685
5.17470367338e-05
-0.000321300697022
4.83911466715e-05
-0.000343293935692
4.49820686313e-05
-0.00036354587994
4.16014600842e-05
-0.000382107348475
3.83074387914e-05
-0.000399047712028
3.51387257923e-05
-0.000414447092594
3.21186842359e-05
-0.000428390514384
2.92589792979e-05
-0.000440963693348
2.65627180728e-05
-0.000452250148469
2.40270256711e-05
-0.000462329340909
2.16450787351e-05
-0.000471275585533
1.94076551342e-05
-0.000479157523276
1.73042753855e-05
-0.00048603798627
1.53240136949e-05
-0.000491974125965
1.34560500571e-05
-0.000497017706323
1.16900236842e-05
-0.000501215489994
1.00162371427e-05
-0.000504609668696
8.42575143068e-06
-0.000507238305949
6.91040257063e-06
-0.000509135761659
5.46275511498e-06
-0.000510333065756
4.07596954132e-06
-0.000510858122278
2.74337155706e-06
-0.000510735110229
1.45732024805e-06
-0.000509983641608
2.09435722144e-07
-0.000508631512798
-9.97337355608e-07
-0.00050671698827
-2.15674490944e-06
-0.000504275062121
-3.2728974856e-06
-0.000501330293136
-4.35242456318e-06
-0.000497897646336
-5.40087291958e-06
-0.000493988475654
-6.4221820348e-06
-0.000489612026379
-7.41999193605e-06
-0.000484775899549
-8.39789165947e-06
-0.000479486166104
-9.35947588455e-06
-0.000473747380894
-1.03083371934e-05
-0.000467562582803
-1.12480277636e-05
-0.000460933318014
-1.21819950359e-05
-0.000453859707333
-1.3113490822e-05
-0.000446340573088
-1.4045454956e-05
-0.000438373637079
-1.49803775414e-05
-0.000429955797006
-1.59201478766e-05
-0.000421083482579
-1.68659018601e-05
-0.000411753085152
-1.78178835588e-05
-0.000401961445219
-1.8775339456e-05
-0.000391706372219
-1.97364660723e-05
-0.000380987160214
-2.06984319937e-05
-0.000369805053509
-2.16574940667e-05
-0.000358163608231
-2.26092235229e-05
-0.000346068890729
-2.35488539745e-05
-0.000333529449313
-2.44717594132e-05
-0.000320555996355
-2.53740632804e-05
-0.000307160741234
-2.62533732073e-05
-0.000293356320017
-2.71096317685e-05
-0.000279154280535
-2.79460610715e-05
-0.000264563095523
-2.87701779708e-05
-0.000249585684528
-2.95948600206e-05
-0.000234216445477
-3.0439408519e-05
-0.000218437895972
-3.13304549164e-05
-0.000202216948097
-3.2302722042e-05
-0.000185501030104
-3.33992304211e-05
-0.000168214588287
-3.46704180319e-05
-0.000150256814864
-3.61714137696e-05
-0.000131502484853
-3.79538837916e-05
-0.000111808565631
-4.00454345835e-05
-9.10296247327e-05
-4.24141459176e-05
-6.90648456695e-05
-4.49204981394e-05
-4.6048095667e-05
-4.7155585767e-05
-2.27691880109e-05
-4.77174897297e-05
-4.25689336284e-05
-9.49632421772e-06
-2.65928281513e-05
-3.19472314283e-05
1.39876250328e-05
-5.72767120909e-05
4.26270054245e-05
-8.16637402188e-05
6.31683310575e-05
-0.000108540955057
7.71016719684e-05
-0.000135187947603
8.61534142162e-05
-0.000162857038825
9.0159134546e-05
-0.000190951155329
9.09467770808e-05
-0.000218595955856
8.96497409322e-05
-0.000245227867461
8.68862302583e-05
-0.000270504892245
8.31101948247e-05
-0.000294230683828
7.8666536885e-05
-0.000316308841729
7.38251945757e-05
-0.000336712952562
6.87952574456e-05
-0.000355465016832
6.3734132842e-05
-0.000372619124395
5.87555675883e-05
-0.000388249059705
5.39373740412e-05
-0.000402439092252
4.93287582789e-05
-0.000415277370798
4.49569627204e-05
-0.000426851396133
4.08330045719e-05
-0.000437245095934
3.69564178104e-05
-0.000446537088402
3.33190180755e-05
-0.000454799794386
2.99077846532e-05
-0.000462099131016
2.67069916978e-05
-0.000468494586281
2.36997305812e-05
-0.000474039529478
2.08689568218e-05
-0.000478781655639
1.81981761444e-05
-0.000482763493325
1.56718612954e-05
-0.000486022929386
1.32756731237e-05
-0.00048859373219
1.09965541547e-05
-0.000490506075157
8.82274545186e-06
-0.000491787004205
6.74368407573e-06
-0.000492460669108
4.74963435164e-06
-0.000492548536336
2.83123868953e-06
-0.000492071284465
9.80068276461e-07
-0.000491052471262
-8.09377581075e-07
-0.000489515607667
-2.53420105552e-06
-0.00048747623598
-4.19611670029e-06
-0.000484945037911
-5.80409566313e-06
-0.000481933345544
-7.36411703776e-06
-0.000478452325577
-8.88189299762e-06
-0.00047451193305
-1.03625746715e-05
-0.000470120778223
-1.18111468763e-05
-0.000465286093471
-1.32325765239e-05
-0.000460013697628
-1.46318718427e-05
-0.000454307952844
-1.60140820915e-05
-0.000448171731073
-1.73842496533e-05
-0.000441606409615
-1.87473166092e-05
-0.000434611914332
-2.01079862254e-05
-0.000427186827528
-2.14705418787e-05
-0.000419328575142
-2.28386300495e-05
-0.000411033703746
-2.42150193937e-05
-0.000402298251826
-2.56013539058e-05
-0.000393118211586
-2.69979239221e-05
-0.000383490067509
-2.8403483662e-05
-0.000373411386492
-2.98151472167e-05
-0.000362881422696
-3.12283959213e-05
-0.000351901688808
-3.2637228085e-05
-0.000340476437249
-3.40344752173e-05
-0.000328612990887
-3.54123004707e-05
-0.000316321857452
-3.67628929852e-05
-0.00030361656215
-3.80793587184e-05
-0.000290513142869
-3.93567926266e-05
-0.000277029252476
-4.05935222968e-05
-0.000263182835661
-4.17924780242e-05
-0.00024899036186
-4.29626519053e-05
-0.000234464627025
-4.41205949902e-05
-0.000219612040267
-4.52919954074e-05
-0.000204429668631
-4.65128266816e-05
-0.000188901874194
-4.78305166034e-05
-0.00017299658807
-4.93045166681e-05
-0.000156661885593
-5.10051206264e-05
-0.000139823028761
-5.30102707159e-05
-0.000122379885879
-5.53970267844e-05
-0.000104205194593
-5.82201259771e-05
-8.51501139322e-05
-6.14692266831e-05
-6.50786587307e-05
-6.49919534345e-05
-4.39491069995e-05
-6.8285137591e-05
-2.20301146078e-05
-6.96364822277e-05
-6.45990482902e-05
-2.81171242498e-05
1.52429553725e-06
-5.56610610149e-05
4.15315617562e-05
-8.14017855009e-05
6.83677299114e-05
-0.00010697188146
8.87384270025e-05
-0.000132786933503
0.000102916723983
-0.000158320676161
0.000111687156839
-0.000183740887669
0.000115579346015
-0.000208760526612
0.000115966415983
-0.000232962063963
0.00011385127824
-0.000256030465045
0.000109954631295
-0.000277766020143
0.000104845749877
-0.000298066796086
9.89673127801e-05
-0.000316902803087
9.2661201529e-05
-0.000334292911044
8.61853653518e-05
-0.000350286676122
7.97278978689e-05
-0.000364950853432
7.34197448456e-05
-0.000378359891281
6.7346411836e-05
-0.000390589609084
6.15584760267e-05
-0.000401713287898
5.60806414777e-05
-0.000411799490467
5.09192070833e-05
-0.000420911050687
4.60679779712e-05
-0.000429104805222
4.15127725482e-05
-0.000436431762597
3.72347419656e-05
-0.000442937505871
3.32127349074e-05
-0.000448662700663
2.94249253057e-05
-0.0004536436331
2.58498891891e-05
-0.000457912736412
2.24672793849e-05
-0.00046149908475
1.92582095589e-05
-0.000464428844806
1.62054331015e-05
-0.000466725693001
1.32934022677e-05
-0.00046841122362
1.05082759866e-05
-0.000469505310108
7.83777047415e-06
-0.000470026185953
5.27051010452e-06
-0.00046999029825
2.79535088856e-06
-0.000469414013468
4.03783394452e-07
-0.000468319683955
-1.90370719683e-06
-0.000466725345452
-4.12853966184e-06
-0.000464641532966
-6.27992929183e-06
-0.000462080687904
-8.36494083114e-06
-0.000459054485705
-1.03903193464e-05
-0.000455573823227
-1.23625555841e-05
-0.000451648507794
-1.42878902159e-05
-0.000447287155906
-1.61724988758e-05
-0.00044249711315
-1.80226193937e-05
-0.00043728436853
-1.98446165752e-05
-0.000431653466263
-2.16449844745e-05
-0.000425607429769
-2.34302862628e-05
-0.000419147716698
-2.52070297989e-05
-0.000412274225254
-2.6981477788e-05
-0.000404985372438
-2.87593948156e-05
-0.000397278263264
-3.05457393447e-05
-0.000389148966509
-3.23443162732e-05
-0.000380592906235
-3.41574143052e-05
-0.000371605369307
-3.59854609788e-05
-0.000362182117642
-3.78267354559e-05
-0.000352320080534
-3.96771844583e-05
-0.000342018088601
-4.15303879878e-05
-0.000331277596952
-4.33777198716e-05
-0.000320103333805
-4.52087385032e-05
-0.000308503812609
-4.70118218078e-05
-0.000296491637333
-4.87750684027e-05
-0.000284083521906
-5.04874742883e-05
-0.000271299980863
-5.21403338109e-05
-0.000258164615325
-5.37288879771e-05
-0.000244702988348
-5.52541051405e-05
-0.000230941024555
-5.67246158373e-05
-0.000216903134278
-5.81584854021e-05
-0.000202609564474
-5.95855653446e-05
-0.000188073833795
-6.10485574896e-05
-0.000173299722707
-6.26046278162e-05
-0.000158277414807
-6.43268246891e-05
-0.000142980139768
-6.63023957811e-05
-0.000127360663064
-6.862974753e-05
-0.000111345744267
-7.14119456869e-05
-9.48284506238e-05
-7.47374197193e-05
-7.76644321332e-05
-7.86332452667e-05
-5.96846667131e-05
-8.29717189455e-05
-4.06740238071e-05
-8.72957805769e-05
-2.05744276511e-05
-8.97360784624e-05
-8.51734759831e-05
-3.64782796404e-05
3.80025757436e-05
-6.57245867354e-05
7.07778689381e-05
-9.33070060736e-05
9.5950149256e-05
-0.000119672256148
0.000115103677059
-0.000144958050856
0.000128202518664
-0.000169185448029
0.000135914553981
-0.000192529084463
0.000138922982417
-0.000214914618811
0.000138351950299
-0.000236200481016
0.000135137140412
-0.00025628155502
0.000130035705264
-0.000275102133439
0.00012366632826
-0.000292653298988
0.000116518478291
-0.00030896077434
0.000108968676841
-0.000324071675261
0.000101296266231
-0.000338043590066
9.36998126302e-05
-0.000350936920878
8.63130756119e-05
-0.00036281022405
7.92197149602e-05
-0.000373717837798
7.24660897255e-05
-0.00038370903138
6.60718350082e-05
-0.00039282803632
6.00382119707e-05
-0.000401114502564
5.435444416e-05
-0.00040860409418
4.90023641072e-05
-0.000415329071735
4.39597194614e-05
-0.000421318796878
3.92024599891e-05
-0.000426600145705
3.4706274068e-05
-0.000431197841837
3.04475852548e-05
-0.00043513472869
2.64041661688e-05
-0.000438432001422
2.25554822174e-05
-0.000441109416716
1.88828483194e-05
-0.000443185490881
1.53694763522e-05
-0.000444677689902
1.2000474924e-05
-0.000445602614219
8.76269470229e-06
-0.000445976173368
5.64406916032e-06
-0.000445813738291
2.63291571394e-06
-0.000445130694264
-2.79260732429e-07
-0.000443946266566
-3.08813499663e-06
-0.000442277229729
-5.79757660256e-06
-0.000440134787916
-8.42237120902e-06
-0.000437530706488
-1.09690223651e-05
-0.000434476297197
-1.34447287443e-05
-0.00043098226633
-1.58565865594e-05
-0.000427058493041
-1.82116636143e-05
-0.000422713866697
-2.05171253311e-05
-0.000417956137199
-2.27803490034e-05
-0.000412791764303
-2.50089895841e-05
-0.000407225767817
-2.72109810745e-05
-0.000401261591135
-2.93944630606e-05
-0.000394900997082
-3.15676239688e-05
-0.000388144019219
-3.37384557711e-05
-0.000380988994017
-3.59144201379e-05
-0.00037343269931
-3.81020341755e-05
-0.000365470621631
-4.03063940779e-05
-0.000357097368601
-4.25306674639e-05
-0.00034830723203
-4.47755976816e-05
-0.000339094894118
-4.70390735024e-05
-0.000329456252096
-4.93158266177e-05
-0.000319389319582
-5.15973206427e-05
-0.00030889514713
-5.38718924672e-05
-0.000297978681008
-5.61252047706e-05
-0.000286649495806
-5.83410071576e-05
-0.000274922337189
-6.05022271687e-05
-0.000262817337745
-6.25924738798e-05
-0.000250359930904
-6.45977408005e-05
-0.000237580278351
-6.65085406761e-05
-0.000224512372852
-6.83220107832e-05
-0.000211192381329
-7.00446075011e-05
-0.000197657304214
-7.16935626545e-05
-0.000183941934006
-7.33009356854e-05
-0.000170076671215
-7.49138204102e-05
-0.000156085100529
-7.65961986271e-05
-0.000141979421897
-7.84325034416e-05
-0.000127757135799
-8.05246819935e-05
-0.00011339804639
-8.29888370471e-05
-9.88571629232e-05
-8.59528292552e-05
-8.40534440224e-05
-8.95411387156e-05
-6.88561131419e-05
-9.3830576236e-05
-5.30865797109e-05
-9.87412524527e-05
-3.64359034567e-05
-0.000103946456904
-1.85994862916e-05
-0.000107572495694
-0.000103772962312
-3.63035452711e-05
7.43061207015e-05
-6.83934953428e-05
0.000102867818975
-9.73533523759e-05
0.000124910006274
-0.000124014972381
0.000141765297045
-0.000148732490707
0.000152920036967
-0.000171751063948
0.000158933127198
-0.000193338012507
0.000160509930953
-0.000213603925736
0.000158617863504
-0.000232597936876
0.000154131151527
-0.000250364408644
0.000147802177006
-0.000266954409248
0.000140256328835
-0.000282426710812
0.000131990779825
-0.000296843160007
0.000123385126005
-0.000310263619314
0.000114716725503
-0.000322742465302
0.000106178658583
-0.000334327073665
9.78976839359e-05
-0.000345057883917
8.9950525172e-05
-0.000354969381697
8.23775874631e-05
-0.000364091410472
7.51938637386e-05
-0.000372450422193
6.83972236441e-05
-0.000380070474498
6.19744964163e-05
-0.00038697392689
5.59058164475e-05
-0.000393181871321
5.01676638386e-05
-0.000398714366648
4.47349552591e-05
-0.000403590549249
3.95824566091e-05
-0.000407828679089
3.4685715032e-05
-0.000411446163315
3.00216503295e-05
-0.000414459587384
2.55689062166e-05
-0.000416884775851
2.1308036712e-05
-0.000418736878639
1.72215790623e-05
-0.000420030426835
1.32940230378e-05
-0.000420779361294
9.51162907316e-06
-0.000420997421867
5.8621296412e-06
-0.000420699565471
2.33505922125e-06
-0.000419903183364
-1.07564293899e-06
-0.000418620794807
-4.37052365509e-06
-0.000416863080322
-7.55529118939e-06
-0.0004146441947
-1.0641256934e-05
-0.000411976458901
-1.36367582682e-05
-0.000408871498873
-1.65496888781e-05
-0.000405340360596
-1.93877249424e-05
-0.000401393432421
-2.2158591898e-05
-0.000397040290354
-2.48702675062e-05
-0.000392289506985
-2.75311324831e-05
-0.000387148438967
-3.01500577135e-05
-0.000381623005297
-3.27364148588e-05
-0.000375717472881
-3.52999955915e-05
-0.00036943427198
-3.78508249869e-05
-0.00036277386986
-4.03988580106e-05
-0.000355734735319
-4.29535548015e-05
-0.000348313428313
-4.55233413076e-05
-0.000340504847348
-4.81149751719e-05
-0.000332302660902
-5.07328540426e-05
-0.000323699935759
-5.33783229614e-05
-0.000314689960201
-5.60490492003e-05
-0.000305267237793
-5.87385491704e-05
-0.000295428600694
-6.14359578899e-05
-0.000285174386579
-6.41261067339e-05
-0.000274509561451
-6.67900300515e-05
-0.000263444703759
-6.94058650047e-05
-0.000251996876635
-7.19500544467e-05
-0.000240190007845
-7.4399342824e-05
-0.000228055131714
-7.67326170832e-05
-0.000215629794214
-7.89338783254e-05
-0.000202957647954
-8.09941571901e-05
-0.000190086070862
-8.29161847358e-05
-0.000177066122432
-8.47135112228e-05
-0.000163948166121
-8.64188921315e-05
-0.000150779817098
-8.80821695641e-05
-0.000137604893123
-8.97711227292e-05
-0.000124457163407
-9.15802332787e-05
-0.000111356025742
-9.36258197753e-05
-9.83055100763e-05
-9.60393528211e-05
-8.52867126212e-05
-9.89716268124e-05
-7.2245109053e-05
-0.000102582742374
-5.90686018721e-05
-0.000107007083499
-4.55848775357e-05
-0.000112224976866
-3.14727707305e-05
-0.000118058563767
-1.6236031326e-05
-0.000122809235159
-0.000120008993643
-3.51202656445e-05
0.000109426386786
-6.74959295215e-05
0.000135243482964
-9.66778737688e-05
0.000154091950547
-0.000123061081816
0.000168148505089
-0.000147020984107
0.000176879939246
-0.000168899600909
0.000180811743986
-0.000189018969554
0.000180629299582
-0.000207605774873
0.000177204668807
-0.00022483128061
0.000171356657247
-0.000240837042632
0.000163807939009
-0.000255742446648
0.000155161732831
-0.00026964742686
0.000145895760016
-0.000282633138244
0.000136370837366
-0.000294763212286
0.00012684679952
-0.0003060861149
0.000117501561169
-0.000316638282715
0.00010844985172
-0.000326447422833
9.97596652583e-05
-0.00033553545257
9.14656171651e-05
-0.000343920790961
8.35792020916e-05
-0.000351619939486
7.60963721299e-05
-0.000358648439013
6.9002995901e-05
-0.000365021357399
6.22787347883e-05
-0.00037075346965
5.58997760426e-05
-0.000375859267056
4.98407526146e-05
-0.000380352894453
4.40760839523e-05
-0.000384248078046
3.85808985675e-05
-0.000387558076719
3.33316489414e-05
-0.000390295674247
2.83065036795e-05
-0.000392473226072
2.34855884671e-05
-0.00039410274477
1.88510976855e-05
-0.000395195928137
1.43872063251e-05
-0.000395764124596
1.00798254467e-05
-0.00039581881955
5.91682450217e-06
-0.000395373055253
1.88929482846e-06
-0.000394440683195
-2.00801509412e-06
-0.000393034141195
-5.77706575368e-06
-0.000391164558657
-9.42487382794e-06
-0.000388843998597
-1.29618170951e-05
-0.00038608436041
-1.63963965566e-05
-0.000382897476148
-1.97365732438e-05
-0.000379295007003
-2.29901941913e-05
-0.000375288270995
-2.61653280123e-05
-0.000370888021465
-2.9270517143e-05
-0.000366104188131
-3.23149659259e-05
-0.000360945587538
-3.53086584174e-05
-0.000355419612842
-3.82623896668e-05
-0.000349531920089
-4.11876884596e-05
-0.000343286137119
-4.40966080746e-05
-0.000336683630202
-4.70013650488e-05
-0.000329723371108
-4.99138140205e-05
-0.000322401951033
-5.28447615113e-05
-0.000314713787748
-5.58031385899e-05
-0.000306651568215
-5.87950737145e-05
-0.000298206948445
-6.18229428739e-05
-0.000289371515803
-6.48844819907e-05
-0.000280137997916
-6.79720672094e-05
-0.000270501633044
-7.10723229185e-05
-0.000260461675094
-7.41660648425e-05
-0.000250022864164
-7.72288411411e-05
-0.000239196619992
-8.02321093372e-05
-0.000228002485145
-8.31441894525e-05
-0.000216468459653
-8.59333684733e-05
-0.000204631969873
-8.85691070172e-05
-0.000192538660911
-9.10271874388e-05
-0.000180243545663
-9.32892725864e-05
-0.000167806133734
-9.53535968096e-05
-0.000155293662723
-9.72259823761e-05
-0.000142774051062
-9.89385039292e-05
-0.000130312952464
-0.000100543268299
-0.000117975694681
-0.000102108380644
-0.000105819479924
-0.000103736448165
-9.38847606841e-05
-0.000105560539135
-8.21974435509e-05
-0.000107726670069
-7.07619908344e-05
-0.000110407079629
-5.95479219556e-05
-0.000113796811344
-4.84659090404e-05
-0.000118089096489
-3.73488146256e-05
-0.00012334207134
-2.59204890878e-05
-0.000129486889361
-1.35532401319e-05
-0.000135176484123
-0.000133562233801
-3.36154626121e-05
0.000143041849292
-6.49555984618e-05
0.000166583618844
-9.33713084019e-05
0.000182507660511
-0.000118935235245
0.000193712431941
-0.000141926395212
0.000199871099213
-0.00016268038407
0.000201565732841
-0.000181530969933
0.000199479885441
-0.000198759559861
0.000194433258729
-0.000214601157563
0.000187198254942
-0.000229249987189
0.000178456768627
-0.000242861754923
0.000168773500556
-0.000255556815976
0.000158590821057
-0.000267424406998
0.000148238428373
-0.000278528166185
0.000137950558691
-0.000288912208433
0.000127885603399
-0.000298606904066
0.000118144547332
-0.000307633723775
0.000108786484945
-0.000316008867926
9.98407612904e-05
-0.00032374570524
9.13160393776e-05
-0.00033085622986
8.32068967187e-05
-0.000337351810948
7.54985769548e-05
-0.000343243493868
6.81704176719e-05
-0.000348542057892
6.11983400272e-05
-0.000353257972236
5.45566669162e-05
-0.000357401336581
4.82194482512e-05
-0.000360981849723
4.21614116589e-05
-0.000364008820465
3.6358619629e-05
-0.000366491220189
3.07889033435e-05
-0.000368437779601
2.54321478149e-05
-0.000369857125611
2.02704436256e-05
-0.000370757867266
1.52879479041e-05
-0.000371148481858
1.04704399553e-05
-0.000371037456085
5.80579864155e-06
-0.000370435090001
1.28692865077e-06
-0.000369354042876
-3.08906231531e-06
-0.000367806138608
-7.32497011753e-06
-0.000365801109638
-1.14299028948e-05
-0.000363350053404
-1.54128734267e-05
-0.000360464813884
-1.92816361751e-05
-0.000357157763961
-2.30436232673e-05
-0.000353441562854
-2.67063953994e-05
-0.000349328900622
-3.02779903475e-05
-0.00034483221151
-3.37672063596e-05
-0.000339963346716
-3.71838308266e-05
-0.0003347332026
-4.05388026422e-05
-0.000329151308903
-4.38442834758e-05
-0.000323225393459
-4.71136040183e-05
-0.000316960953438
-5.03610482138e-05
-0.000310360876714
-5.36014418959e-05
-0.00030342516981
-5.68495210526e-05
-0.000296150856265
-6.011907519e-05
-0.000288532108324
-6.34218866701e-05
-0.000280560682404
-6.67664997788e-05
-0.000272226692306
-7.0156933122e-05
-0.000263519723153
-7.35914512998e-05
-0.000254430324359
-7.70614661628e-05
-0.000244951678172
-8.05509692674e-05
-0.000235081496586
-8.40362465924e-05
-0.000224824049386
-8.74862885053e-05
-0.000214191217819
-9.08649410674e-05
-0.00020320522426
-9.41301831735e-05
-0.000191898097906
-9.7240494985e-05
-0.000180314637398
-0.000100152567682
-0.000168508727854
-0.000102833097136
-0.000156548980248
-0.000105249020343
-0.000144507483564
-0.000107395093645
-0.000132469718859
-0.00010926374723
-0.000120524120812
-0.000110884102124
-0.000108756092244
-0.000112311297012
-9.72531393003e-05
-0.00011361133373
-8.61005296906e-05
-0.000114889057912
-7.53624508938e-05
-0.000116298618063
-6.5086055097e-05
-0.000118003065982
-5.52983048347e-05
-0.000120194829993
-4.5988981427e-05
-0.000123106134831
-3.70960272599e-05
-0.000126982050722
-2.844937357e-05
-0.000131988725083
-1.98406365581e-05
-0.000138095626388
-1.05793750697e-05
-0.000144437745655
-0.000144141608827
-3.16947663925e-05
0.000174736616083
-6.14920403132e-05
0.000196380892912
-8.86151932016e-05
0.000209630813465
-0.000113007810173
0.000218105048947
-0.000134870208917
0.000221733497975
-0.000154496808783
0.00022119233272
-0.000172205436325
0.000217188512992
-0.00018829075928
0.00021051858169
-0.000203010022757
0.000201917518423
-0.000216577034125
0.000192023779998
-0.000229160477325
0.000181356943756
-0.000240887039201
0.000170317382931
-0.000251847584171
0.00015919897334
-0.000262104882047
0.000148207856561
-0.000271701334028
0.000137482055372
-0.00028066562896
0.000127108842253
-0.000289017831241
0.000117138687213
-0.0002967728787
0.000107595808734
-0.000303942752612
9.8485913272e-05
-0.000310537685438
8.98018295236e-05
-0.00031656675505
8.15276465439e-05
-0.000322038140101
7.36418026969e-05
-0.000326959224257
6.61194241536e-05
-0.000331336661254
5.89341038797e-05
-0.000335176456778
5.20592437391e-05
-0.000338484086831
4.54690416705e-05
-0.000341264650082
3.91391828334e-05
-0.000343523039361
3.30472925716e-05
-0.00034526412151
2.71732299066e-05
-0.000346492937229
2.14992592805e-05
-0.000347214899692
1.60099102973e-05
-0.000347435719268
1.0691259453e-05
-0.00034716067734
5.53075662575e-06
-0.000346394962409
5.21213630599e-07
-0.00034515197722
-4.3320475951e-06
-0.000343444863757
-9.0320836724e-06
-0.000341280393514
-1.35943732299e-05
-0.000338668972206
-1.80242948279e-05
-0.000335622651683
-2.23279567928e-05
-0.000332154613956
-2.65116610903e-05
-0.000328278798659
-3.05822107941e-05
-0.000324009590092
-3.45471990143e-05
-0.000319361489896
-3.84153066568e-05
-0.000314348740368
-4.21965804586e-05
-0.000308984879999
-4.59026631185e-05
-0.000303282227043
-4.9546936543e-05
-0.000297251304541
-5.31445266353e-05
-0.000290900241281
-5.67121115941e-05
-0.000284234201646
-6.02674816563e-05
-0.000277254918038
-6.38288047926e-05
-0.000269960418311
-6.74135750554e-05
-0.000262345022725
-7.10372824016e-05
-0.000254399732644
-7.4711790011e-05
-0.000246113079433
-7.84435864892e-05
-0.000237472360371
-8.22321705221e-05
-0.000228465536777
-8.60682899213e-05
-0.000219083256913
-8.99332492973e-05
-0.000209321085018
-9.37984186539e-05
-0.000199182794069
-9.76245796192e-05
-0.000188679945317
-0.000101367789983
-0.000177837958081
-0.000104972170573
-0.000166692234563
-0.000108386218663
-0.000155296459195
-0.000111548343211
-0.000143711834185
-0.000114417722306
-0.000132023212543
-0.000116937642149
-0.000120315556877
-0.000119102749475
-0.000108693560422
-0.000120885743851
-9.72691817576e-05
-0.000122308480953
-8.61525124611e-05
-0.000123427966468
-7.54517268021e-05
-0.000124312119547
-6.52856406652e-05
-0.000125055144198
-5.57493066161e-05
-0.000125834952249
-4.6912526813e-05
-0.000126839845901
-3.88271687569e-05
-0.000128280188138
-3.15021210955e-05
-0.000130431182559
-2.49041765371e-05
-0.00013357999532
-1.88622607298e-05
-0.000138030640913
-1.32235282016e-05
-0.000143734358945
-7.30310282166e-06
-0.00015035817095
-0.000151444711663
-2.95210342733e-05
0.000204257650328
-5.75251379804e-05
0.000224384996695
-8.31030764578e-05
0.000235208752009
-0.000106139205877
0.000241141178414
-0.00012678188211
0.000242376174244
-0.000145282727798
0.000239693178435
-0.000161931740625
0.000233837525842
-0.000177012977967
0.000225599819052
-0.000190780398719
0.000215684939192
-0.000203446260033
0.000204689641326
-0.00021517742427
0.000193088108006
-0.000226098436958
0.000181238395629
-0.000236298412343
0.000169398948734
-0.000245839320174
0.000157748764399
-0.000254763799177
0.00014640653438
-0.000263101484665
0.000135446527743
-0.00027087356525
0.000124910767798
-0.000278095754368
0.000114817997849
-0.000284780068217
0.000105170227115
-0.000290935822143
9.59575834419e-05
-0.000296570182629
8.7162007019e-05
-0.000301688508939
7.87601289932e-05
-0.000306294624506
7.07255397031e-05
-0.000310391087562
6.30305669146e-05
-0.000313979484632
5.56476407832e-05
-0.000317060745402
4.85503024106e-05
-0.000319635466835
4.1713904231e-05
-0.000321704229076
3.51160547706e-05
-0.000323267878924
2.87368797062e-05
-0.00032432776897
2.25591492712e-05
-0.000324885975974
1.65681172376e-05
-0.000324945477619
1.07507610249e-05
-0.000324510031095
5.09531002284e-06
-0.00032358379584
-4.05021709876e-07
-0.00032217570492
-5.74013860008e-06
-0.000320294974718
-1.09128139605e-05
-0.000317949642953
-1.59397050811e-05
-0.000315150694786
-2.08232430824e-05
-0.000311910876564
-2.55677751033e-05
-0.000308244323992
-3.01782137531e-05
-0.000304166283133
-3.4660251745e-05
-0.000299692848583
-3.90206336597e-05
-0.00029484066166
-4.32674936771e-05
-0.000289626530584
-4.74107116358e-05
-0.000284066945062
-5.14622487457e-05
-0.000278177470193
-5.54364115224e-05
-0.000271972025914
-5.9349971031e-05
-0.000265462091072
-6.3222046558e-05
-0.000258655895415
-6.70736774422e-05
-0.000251557684924
-7.09270154199e-05
-0.000244167213907
-7.48040462146e-05
-0.000236479518372
-7.87249780868e-05
-0.00022848517048
-8.27061380577e-05
-0.000220171243136
-8.67575139931e-05
-0.0002115225032
-9.08809106207e-05
-0.000202523914539
-9.50668787472e-05
-0.000193163209876
-9.92939541264e-05
-0.000183432822228
-0.000103528806467
-0.000173336715069
-0.000107720686942
-0.000162884594355
-0.000111819910863
-0.000152106403148
-0.000115750361944
-0.000141039250459
-0.00011945337152
-0.000129748042558
-0.000122839551282
-0.000118299341396