/*--------------------------------*- C++ -*----------------------------------*\
| =========                 |                                                 |
| \\      /  F ield         | OpenFOAM: The Open Source CFD Toolbox           |
|  \\    /   O peration     | Version:  v1806                                 |
|   \\  /    A nd           | Web:      www.OpenFOAM.com                      |
|    \\/     M anipulation  |                                                 |
\*---------------------------------------------------------------------------*/
FoamFile
{
    version     2.0;
    format      ascii;
    class       surfaceScalarField;
    location    "1000";
    object      phi;
}
// * * * * * * * * * * * * * * * * * * * * * * * * * * * * * * * * * * * * * //

dimensions      [0 3 -1 0 0 0 0];
oriented        oriented;


internalField   nonuniform List<scalar> 
12640
(
1.33286780835e-05
-1.33286882132e-05
2.09020205049e-05
-7.57335341656e-06
2.36553226474e-05
-2.75331354106e-06
1.58145305955e-05
7.84078176054e-06
-3.18948162469e-06
1.90040008596e-05
-3.21527410836e-05
2.89632482775e-05
-6.2427054873e-05
3.02743058179e-05
-9.30992070706e-05
3.06721456406e-05
-0.00012356636367
3.04671506883e-05
-0.000153350795651
2.97844266732e-05
-0.000182088199214
2.8737398712e-05
-0.00020951936147
2.74311578393e-05
-0.000235473916526
2.59545509974e-05
-0.000259853674828
2.43797545538e-05
-0.00028261700249
2.27633241816e-05
-0.000303764930714
2.11479249606e-05
-0.000323329285089
1.95643513083e-05
-0.00034136289975
1.80336117449e-05
-0.000357931825292
1.65689227702e-05
-0.000373109336409
1.51775084476e-05
-0.000386971488803
1.38621498287e-05
-0.00039959395678
1.2622465481e-05
-0.000411049891592
1.14559323907e-05
-0.000421408566912
1.03586729432e-05
-0.000430734611549
9.32604231148e-06
-0.000439087666017
8.35305217007e-06
-0.000446522332455
7.43466417175e-06
-0.000453088316604
6.56598189708e-06
-0.000458830683718
5.74236487829e-06
-0.000463790168987
4.9594830396e-06
-0.000468003494408
4.21332319735e-06
-0.000471503652794
3.50015616456e-06
-0.000474320100997
2.81644597537e-06
-0.000476478698274
2.15859504698e-06
-0.000478001333659
1.52263314351e-06
-0.00047890608603
9.0475013581e-07
-0.000479205574657
2.99486385484e-07
-0.000478908045615
-2.97531267538e-07
-0.000478021693579
-8.86354265557e-07
-0.000476558863655
-1.46283213221e-06
-0.000474535348657
-2.02351721155e-06
-0.000471966434695
-2.56891615121e-06
-0.000468865795679
-3.10064121338e-06
-0.000465245119181
-3.6206786676e-06
-0.000461114004736
-4.13111662587e-06
-0.000456479965204
-4.63404168298e-06
-0.00045134848116
-5.13148621101e-06
-0.000445723099812
-5.62538348316e-06
-0.000439605585078
-6.1175168883e-06
-0.00043299612922
-6.60945798221e-06
-0.000425893635864
-7.10249550494e-06
-0.000418296079653
-7.59755833068e-06
-0.000410200941678
-8.09514012719e-06
-0.000401605710711
-8.5952330926e-06
-0.000392508430872
-9.09728200349e-06
-0.000382908264944
-9.60016807127e-06
-0.000372806032659
-1.01022344757e-05
-0.0003622046724
-1.06013624353e-05
-0.000351109566944
-1.10951076902e-05
-0.000339528666753
-1.15809024187e-05
-0.000327472341959
-1.20563270884e-05
-0.000314952892935
-1.25194513222e-05
-0.000301983653351
-1.29692419588e-05
-0.000288577624293
-1.34060314467e-05
-0.00027474558785
-1.38320389126e-05
-0.000260493657184
-1.4251933154e-05
-0.000245820241097
-1.46734186574e-05
-0.000230712438073
-1.51078056146e-05
-0.000215141912208
-1.5570528538e-05
-0.000199060418305
-1.60814966032e-05
-0.000182395437423
-1.66649836854e-05
-0.000165046588786
-1.73488515118e-05
-0.000146884140562
-1.81624512829e-05
-0.000127754080493
-1.91300633779e-05
-0.000107500656147
-2.02534278831e-05
-8.60185729366e-05
-2.14820871931e-05
-6.33257533742e-05
-2.26928239231e-05
-3.96828605863e-05
-2.36428974186e-05
-1.63899033516e-05
-2.32929658857e-05
-1.63899081769e-05
9.76940387964e-06
-2.30981106689e-05
6.47923005595e-06
-4.2831968161e-06
-1.33223418743e-05
1.70482470065e-05
-4.16324854265e-05
3.61509175329e-05
-6.97934628046e-05
4.71649727764e-05
-9.69068885269e-05
5.60766697737e-05
-0.000126533700869
5.99011141159e-05
-0.000156969085907
6.11075269417e-05
-0.000187239783785
6.07378447882e-05
-0.000216726713147
5.927135249e-05
-0.000245021324515
5.70320065568e-05
-0.000271855844844
5.42656748838e-05
-0.000297066710663
5.11654135921e-05
-0.000320569186558
4.78822274358e-05
-0.000342337504524
4.45316391982e-05
-0.000362388726603
4.11991442603e-05
-0.000380769670623
3.79452926052e-05
-0.000397546529169
3.48104676953e-05
-0.000412796857018
3.18192480708e-05
-0.000426603586205
2.89842351737e-05
-0.00043905072141
2.63092826144e-05
-0.000450220380302
2.37921220074e-05
-0.000460190876133
2.1426425894e-05
-0.000469035582235
1.92033767414e-05
-0.000476822364574
1.71128223826e-05
-0.000483613412976
1.51440983011e-05
-0.000489465340307
1.32865892687e-05
-0.000494429451109
1.15300904371e-05
-0.000498552106136
9.86501768261e-06
-0.000501875134907
8.28250954133e-06
-0.000504436266557
6.77445262067e-06
-0.00050626954184
5.33342915606e-06
-0.000507405651193
3.95255308396e-06
-0.000507872111759
2.62505328973e-06
-0.000507692675949
1.3431950675e-06
-0.000506886258534
9.8330373035e-08
-0.000505481725533
-1.10504887761e-06
-0.000503518504046
-2.2607550942e-06
-0.000501030166591
-3.37469396576e-06
-0.000498039723775
-4.45327727702e-06
-0.000494561393658
-5.50184955361e-06
-0.000490605960675
-6.5243514488e-06
-0.000486182140227
-7.52446386594e-06
-0.000481296999825
-8.50582136918e-06
-0.000475956063872
-9.47205476425e-06
-0.000470163332294
-1.04267755448e-05
-0.000463921291022
-1.13735296516e-05
-0.000457230951818
-1.23157249568e-05
-0.000450091940149
-1.32565307134e-05
-0.000442502648754
-1.41987516384e-05
-0.000434460466207
-1.5144680202e-05
-0.000425962089464
-1.60959373321e-05
-0.000417003918409
-1.7053313336e-05
-0.000407582526533
-1.80166272336e-05
-0.000397695187593
-1.89846231113e-05
-0.000387340431852
-1.99549260961e-05
-0.000376518590774
-2.09240777495e-05
-0.000365232283522
-2.18876720027e-05
-0.000353486785671
-2.28406077822e-05
-0.000341290219088
-2.37774713632e-05
-0.000328653495591
-2.4693052887e-05
-0.000315589952014
-2.55829973241e-05
-0.000302114616027
-2.64445803239e-05
-0.000288243052876
-2.72775970978e-05
-0.000273989753286
-2.80853409664e-05
-0.000259366037329
-2.88756516922e-05
-0.000244377457585
-2.96620009532e-05
-0.000229020741816
-3.04645240395e-05
-0.000213280341564
-3.13109314249e-05
-0.000197124619504
-3.22372213938e-05
-0.000180502067234
-3.32875386858e-05
-0.000163338176202
-3.45127453992e-05
-0.00014553384188
-3.59667885382e-05
-0.000126967657428
-3.76962509445e-05
-0.000107505207843
-3.97158808243e-05
-8.70204221071e-05
-4.19668764194e-05
-6.54653663197e-05
-4.42478833577e-05
-4.31122930602e-05
-4.59959748696e-05
-2.09583716118e-05
-4.54468918733e-05
-3.73482839744e-05
-8.4374538649e-06
-1.46606616527e-05
-3.03031295452e-05
1.75824694392e-05
-5.61244859964e-05
4.28695980618e-05
-8.14859858244e-05
6.15124133458e-05
-0.000108889850265
7.45688338868e-05
-0.000136115364597
8.33021811225e-05
-0.000163906964864
8.76927116565e-05
-0.000191771928839
8.89724882252e-05
-0.000219089125615
8.80550389165e-05
-0.000245391017492
8.55732416807e-05
-0.000270364422785
8.20054092005e-05
-0.000293818520305
7.77197697456e-05
-0.000315655215424
7.30021061107e-05
-0.000335844555511
6.80715649379e-05
-0.000354404836349
6.30919175145e-05
-0.000371386771548
5.81810769625e-05
-0.000386861214201
5.34197328183e-05
-0.00040090994549
4.88591965691e-05
-0.000413619030682
4.45283308929e-05
-0.000425074243511
4.0439445655e-05
-0.000435358091188
3.65931279754e-05
-0.000444548030268
3.29820587882e-05
-0.00045271553464
2.95939279858e-05
-0.000459925749529
2.64135893628e-05
-0.000466237531213
2.34246018031e-05
-0.000471703727478
2.06102923118e-05
-0.000476371596665
1.79544561918e-05
-0.00048028329421
1.54417857223e-05
-0.000483476379169
1.30581003607e-05
-0.000485984322124
1.07904502166e-05
-0.000487837021228
8.62714941579e-06
-0.000489061271163
6.55767678135e-06
-0.000489680947315
4.57222688438e-06
-0.000489717106528
2.66121015111e-06
-0.000489190376305
8.16462459935e-07
-0.000488125606667
-9.66441622728e-07
-0.000486545110793
-2.68554712684e-06
-0.000484462326818
-4.34354140541e-06
-0.000481888322188
-5.9487009525e-06
-0.00047883431051
-7.50729127017e-06
-0.000475311080595
-9.02508180684e-06
-0.000471328134035
-1.05073003018e-05
-0.000466893590025
-1.19590101949e-05
-0.000462014162409
-1.33852512596e-05
-0.000456695129828
-1.47910896467e-05
-0.000450940300034
-1.61816075944e-05
-0.0004447519877
-1.75618442724e-05
-0.000438131025693
-1.89366892079e-05
-0.000431076829423
-2.0310729261e-05
-0.000423587531404
-2.16880518963e-05
-0.000415660201118
-2.30720127646e-05
-0.000407291160047
-2.44649806456e-05
-0.000398476395673
-2.58680799965e-05
-0.000389212068541
-2.72809566224e-05
-0.000379495096284
-2.87015976764e-05
-0.000369323785754
-3.01262389127e-05
-0.000358698473939
-3.15493919074e-05
-0.000347622127323
-3.29640209477e-05
-0.000336100839694
-3.43618978025e-05
-0.000324144161693
-3.57341517495e-05
-0.000311765195467
-3.70720215644e-05
-0.000298980387774
-3.83678074705e-05
-0.000285808967083
-3.96160035366e-05
-0.00027227197447
-4.08145922398e-05
-0.000258390859834
-4.19664581992e-05
-0.000244185635147
-4.30808789865e-05
-0.000229672557884
-4.41750808849e-05
-0.000214861385944
-4.52756986592e-05
-0.00019975238601
-4.64199340932e-05
-0.000184332799136
-4.76568110166e-05
-0.000168573183354
-4.90471572809e-05
-0.000152424392167
-5.06615394475e-05
-0.000135814714633
-5.25764690414e-05
-0.000118647449623
-5.48635190761e-05
-0.000100800574165
-5.75627595123e-05
-8.21349888922e-05
-6.06324651453e-05
-6.25409393899e-05
-6.38419363833e-05
-4.20483435659e-05
-6.64885739673e-05
-2.09410854763e-05
-6.65541553427e-05
-5.8289371583e-05
-2.4449019938e-05
9.78833889241e-06
-5.23385802684e-05
4.5472022771e-05
-7.89687510117e-05
6.94997649815e-05
-0.000105436153642
8.7979812958e-05
-0.000131955939342
0.00010108861697
-0.00015806568957
0.000109411929063
-0.000183754067405
0.000113381087356
-0.000208789145636
0.000114007564392
-0.00023287526532
0.0001121411565
-0.000255771578761
0.000108469552998
-0.000277318452763
0.000103552281017
-0.000297432941099
9.78342558753e-05
-0.000316092987026
9.16621497922e-05
-0.000333320026701
8.52986023648e-05
-0.000349163710771
7.89355993183e-05
-0.00036368984198
7.27072059127e-05
-0.000376971560151
6.67014487252e-05
-0.000389083347422
6.09709815884e-05
-0.000400097264349
5.55422455685e-05
-0.000410080823632
5.0423002696e-05
-0.000419095987386
4.5608289491e-05
-0.000427198884703
4.10849538718e-05
-0.000434439957697
3.6834998748e-05
-0.000440864338826
3.28379682593e-05
-0.00044651233462
2.90725953624e-05
-0.00045141994183
2.5517897278e-05
-0.000455619355283
2.21538673937e-05
-0.000459139446618
1.89618747865e-05
-0.000462006204313
1.59248557743e-05
-0.000464243140319
1.30273839137e-05
-0.000465871686468
1.02556932416e-05
-0.000466911565072
7.5975530268e-06
-0.000467380918975
5.04157841193e-06
-0.000467295971039
2.57625980419e-06
-0.000466671814708
1.92303715925e-07
-0.000465531358627
-2.10690011839e-06
-0.000463893780927
-4.32312721044e-06
-0.000461768744408
-6.46858031108e-06
-0.000459167973509
-8.54947420975e-06
-0.000456102709072
-1.05725580698e-05
-0.000452583412568
-1.25443806452e-05
-0.000448619433368
-1.44712818429e-05
-0.000444218899445
-1.63595464309e-05
-0.000439388636773
-1.82155162543e-05
-0.000434134086249
-2.00456424672e-05
-0.000428459221404
-2.18564747481e-05
-0.000422366482085
-2.36545858771e-05
-0.000415856744117
-2.54464294787e-05
-0.000408929345917
-2.72381297435e-05
-0.000401582193746
-2.90352063742e-05
-0.000393811964842
-3.08422439611e-05
-0.000385614424299
-3.26625235104e-05
-0.000376984863803
-3.44976428079e-05
-0.000367918660816
-3.63471619609e-05
-0.000358411943618
-3.82083172266e-05
-0.000348462333574
-4.00758513526e-05
-0.00033806972209
-4.19420057947e-05
-0.000327237030921
-4.37967145676e-05
-0.000315970889167
-4.56280420195e-05
-0.000304282152023
-4.74228914079e-05
-0.000292186192037
-4.916798408e-05
-0.000279702885344
-5.08511167451e-05
-0.000266856245512
-5.24626459688e-05
-0.000253673650248
-5.39971901553e-05
-0.000240184630769
-5.54554803496e-05
-0.000226419256351
-5.68462561241e-05
-0.000212406073733
-5.81882662443e-05
-0.000198169495336
-5.95122798404e-05
-0.000183727335622
-6.08620966147e-05
-0.0001690873849
-6.22967645898e-05
-0.00015424348177
-6.38910633014e-05
-0.000139172938824
-6.57320853552e-05
-0.000123832615382
-6.7916795539e-05
-0.000108151804583
-7.05443330492e-05
-9.20254239689e-05
-7.36891434963e-05
-7.53089101468e-05
-7.73489823678e-05
-5.78242470754e-05
-8.13266029182e-05
-3.93683244555e-05
-8.49445006202e-05
-1.98266082574e-05
-8.60958745743e-05
-7.81159832129e-05
-3.36655491626e-05
4.34538898149e-05
-6.27737697416e-05
7.45802409292e-05
-9.07254378655e-05
9.74514304151e-05
-0.000117654712754
0.000114909085351
-0.000143510840087
0.00012694474207
-0.000168223233111
0.000134124320071
-0.000191856552118
0.000137014404492
-0.000214359359744
0.000136510370197
-0.000235650557858
0.000133432352798
-0.000255670699989
0.000128489693267
-0.000274395402881
0.000122276982005
-0.00029183481594
0.000115273666971
-0.000308025369862
0.000107852701711
-0.000323019755021
0.000100292985475
-0.000336878201475
9.27940436974e-05
-0.000349662177453
8.54911797848e-05
-0.000361430516302
7.84697854532e-05
-0.000372237478468
7.17779416143e-05
-0.00038213212821
6.54368931611e-05
-0.000391158475433
5.9449347758e-05
-0.000399355978709
5.38057905984e-05
-0.000406760154831
4.84891278158e-05
-0.000413403159077
4.34780008089e-05
-0.000419314281078
3.87490880648e-05
-0.000424520347664
3.42786597402e-05
-0.000429046045703
3.0043593095e-05
-0.000432914185248
2.6022004695e-05
-0.000436145924885
2.21936121606e-05
-0.000438760980482
1.85399090789e-05
-0.000440777823268
1.50442243826e-05
-0.000442213852097
1.16917197212e-05
-0.00044308553636
8.46923490922e-06
-0.000443408673728
5.36471335007e-06
-0.000443199241544
2.36682517056e-06
-0.00044247492291
-5.32017373004e-07
-0.000441251969643
-3.32985581637e-06
-0.000439543922878
-6.03117639533e-06
-0.000437363707684
-8.64879790048e-06
-0.000434723169338
-1.11900149449e-05
-0.000431633414035
-1.366231574e-05
-0.000428104797735
-1.60729993088e-05
-0.000424146775881
-1.84293060411e-05
-0.000419767763019
-2.07385616358e-05
-0.000414974990851
-2.30082907487e-05
-0.000409774361482
-2.52462741676e-05
-0.000404170302177
-2.74605363707e-05
-0.00039816563663
-2.96592537524e-05
-0.000391761493286
-3.18505751443e-05
-0.000384957275581
-3.4042349786e-05
-0.000377750720682
-3.62417636126e-05
-0.000370138073209
-3.84548937977e-05
-0.000362114396908
-4.06862021841e-05
-0.000353674040139
-4.2938001983e-05
-0.000344811258453
-4.52099460698e-05
-0.000335520983082
-4.74985950623e-05
-0.000325799705219
-4.97971317028e-05
-0.000315646426884
-5.20952866609e-05
-0.00030506362573
-5.43795182795e-05
-0.000294058160515
-5.66335098355e-05
-0.000282642015702
-5.88390388464e-05
-0.000270832828202
-6.09771742471e-05
-0.000258654076888
-6.30298707486e-05
-0.000246134914048
-6.49818115368e-05
-0.00023330957132
-6.68225356362e-05
-0.000220216279416
-6.8548775043e-05
-0.000206895794954
-7.01667434018e-05
-0.000193389646818
-7.16944172316e-05
-0.000179737195675
-7.31647338645e-05
-0.00016597398227
-7.46253129383e-05
-0.000152128363402
-7.6142386421e-05
-0.000138216262406
-7.78031673133e-05
-0.000124239792747
-7.97085581043e-05
-0.000110184180338
-8.19724111452e-05
-9.60063780353e-05
-8.47221387039e-05
-8.16252265323e-05
-8.80702984546e-05
-6.69056188821e-05
-9.20685936641e-05
-5.16358096942e-05
-9.65964156858e-05
-3.54752782971e-05
-0.000101105035095
-1.80362480249e-05
-0.000103534910234
-9.61522327428e-05
-3.48063803936e-05
7.82602593796e-05
-6.61769001677e-05
0.000105950756976
-9.50667393562e-05
0.000126341267057
-0.0001219696973
0.000141812041087
-0.000147046627988
0.000152021670769
-0.000170418450816
0.000157496141084
-0.000192258509194
0.000158854461169
-0.000212670259741
0.000156922119095
-0.000231726947012
0.000152489038418
-0.00024949748959
0.000146260234165
-0.000266053157719
0.000138832648402
-0.000281467170054
0.000130687677524
-0.000295810981327
0.000122196511143
-0.000309150551047
0.000113632553306
-0.000321544032051
0.000105187522766
-0.000333041134297
9.6988280058e-05
-0.000343683771872
8.91124210211e-05
-0.000353507404252
8.16015719603e-05
-0.0003625425577
7.44720445494e-05
-0.000370816193301
6.77229812803e-05
-0.0003783527677
6.13423628998e-05
-0.000385174962812
5.53113208132e-05
-0.000391304133955
4.96071698204e-05
-0.000396760553655
4.42055056166e-05
-0.000401563527659
3.90816315754e-05
-0.000405731444475
3.42115077177e-05
-0.000409281801317
2.9572359317e-05
-0.000412231237553
2.51430461445e-05
-0.000414595600362
2.09042696012e-05
-0.000416390037192
1.68386588905e-05
-0.000417629042181
1.29307223462e-05
-0.000418326470498
9.16666080987e-06
-0.000418496014267
5.53425466918e-06
-0.000418152608038
2.02341645013e-06
-0.000417312670602
-1.37195729932e-06
-0.000415989327122
-4.65320175923e-06
-0.000414194035791
-7.82647016208e-06
-0.000411940008819
-1.09028272912e-05
-0.000409239119335
-1.38909068279e-05
-0.000406102610576
-1.6798826885e-05
-0.000402541137001
-1.96344752559e-05
-0.000398564661789
-2.24057836168e-05
-0.000394182293263
-2.51209325155e-05
-0.000389402089472
-2.77884968916e-05
-0.000384230843452
-3.04175225348e-05
-0.0003786738617
-3.30175204747e-05
-0.000372734753567
-3.55983642413e-05
-0.000366415255824
-3.81700752567e-05
-0.000359715122662
-4.07424853297e-05
-0.000352632115778
-4.33247729037e-05
-0.000345162130244
-4.59248817606e-05
-0.000337299489944
-4.85488449498e-05
-0.000329037439405
-5.1200055018e-05
-0.000320368842244
-5.38785457713e-05
-0.000311287078184
-5.65803617009e-05
-0.000301787110354
-5.92971021566e-05
-0.00029186665439
-6.20157452871e-05
-0.000281527397648
-6.47187777248e-05
-0.000270776206102
-6.73847041172e-05
-0.000259626127895
-6.99891198214e-05
-0.00024809722054
-7.25060843948e-05
-0.000236216947895
-7.49101462145e-05
-0.000224020210136
-7.71785521397e-05
-0.000211548922841
-7.92938258018e-05
-0.000198851009818
-8.12466909654e-05
-0.000185978819501
-8.30389366467e-05
-0.000172988077429
-8.46851622651e-05
-0.000159933517948
-8.62192963491e-05
-0.000146868532933
-8.76903009916e-05
-0.000133842558024
-8.91683644323e-05
-0.000120892064977
-9.07536635208e-05
-0.000108039934755
-9.25606915917e-05
-9.52972201327e-05
-9.47151291495e-05
-8.26463027537e-05
-9.73730596109e-05
-7.00310321231e-05
-0.000100685572807
-5.7336164229e-05
-0.000104763465247
-4.43522957126e-05
-0.000109580287941
-3.06950285824e-05
-0.000114762306527
-1.57671059378e-05
-0.000118462835319
-0.000111919341959
-3.41814173069e-05
0.000112441681492
-6.58484693641e-05
0.000137617808621
-9.4760945718e-05
0.000155253741877
-0.000121173262012
0.000168224355632
-0.00014531624037
0.000176164647408
-0.000167421280964
0.000179601180045
-0.000187732792812
0.000179165971454
-0.000206454746985
0.000175644071736
-0.000223760653683
0.000169794943583
-0.000239801440778
0.000162301019699
-0.000254707105634
0.000153738311656
-0.000268586743428
0.000144567313663
-0.000281528661038
0.000135138427046
-0.000293601810397
0.000125705700905
-0.000304858551836
0.000116444262398
-0.000315338185083
0.000107467911453
-0.000325070557849
9.88447918955e-05
-0.000334079223673
9.06102358561e-05
-0.000342383879802
8.27766987208e-05
-0.000350002044381
7.53411438726e-05
-0.0003569500773
6.82903938074e-05
-0.000363243711095
6.16049525727e-05
-0.000368898261314
5.52617179818e-05
-0.000373928657379
4.92358995981e-05
-0.000378349395922
4.35023680066e-05
-0.000382174480871
3.80365905229e-05
-0.000385417383917
3.28152601815e-05
-0.000388091042437
2.78167024404e-05
-0.000390207910247
2.30211351437e-05
-0.0003917800519
1.84107982295e-05
-0.00039281917606
1.39698441372e-05
-0.000393336555496
9.68403782058e-06
-0.000393343465876
5.54116254111e-06
-0.000392852832857
1.53278091372e-06
-0.00039187868291
-2.34610975114e-06
-0.000390433775607
-6.09811153685e-06
-0.000388529057843
-9.73119037625e-06
-0.000386176112633
-1.32557749269e-05
-0.000383386468999
-1.66805528696e-05
-0.000380171608063
-2.00136902141e-05
-0.000376542826501
-2.32632591989e-05
-0.000372511044928
-2.64375675606e-05
-0.000368086574574
-2.95454052376e-05
-0.00036327884957
-3.25962242623e-05
-0.000358096130438
-3.56002440382e-05
-0.000352545189089
-3.85684642043e-05
-0.000346630993853
-4.15125618732e-05
-0.000340356422686
-4.44446488412e-05
-0.000333722042221
-4.73768682408e-05
-0.000326725998332
-5.03208192729e-05
-0.00031936406701
-5.32868156058e-05
-0.000311629913232
-5.62830012949e-05
-0.000303515603061
-5.93143678087e-05
-0.000295012388905
-6.23817625959e-05
-0.000286111757994
-6.54809953336e-05
-0.000276806733299
-6.86021296196e-05
-0.00026709331288
-7.17291685198e-05
-0.0002569719777
-7.48401157516e-05
-0.000246449332244
-7.790735245e-05
-0.000235539357447
-8.08990975165e-05
-0.000224264667575
-8.37807771824e-05
-0.000212657102191
-8.65177145344e-05
-0.000200757968866
-8.90776884164e-05
-0.000188617812243
-9.14339854027e-05
-0.000176295590311
-9.35689159062e-05
-0.000163856283481
-9.54782465154e-05
-0.00015137189363
-9.71695552098e-05
-0.000138913714236
-9.86774788622e-05
-0.000126553209351
-0.00010005080908
-0.000114363099282
-0.00010135847775
-0.000102402300523
-0.000102714465645
-9.07109492348e-05
-0.000104252046338
-7.93239201096e-05
-0.000106102161884
-6.82463125259e-05
-0.000108450670988
-5.7444475463e-05
-0.00011148741377
-4.68264414736e-05
-0.000115381503293
-3.62033508712e-05
-0.000120203382287
-2.52162485897e-05
-0.000125749411808
-1.3119723171e-05
-0.000130559366454
-0.000125039066197
-3.28888688088e-05
0.000145330544943
-6.36534961561e-05
0.000168382434192
-9.17625015523e-05
0.000183362745832
-0.000117249702494
0.000193711555109
-0.000140306760484
0.000199221703939
-0.000161188715206
0.000200483133339
-0.00018017013638
0.000198147391229
-0.000197506073255
0.000192980007223
-0.000213423103371
0.000185711972301
-0.000228115345912
0.000176993260813
-0.000241742105626
0.000167365069901
-0.000254428398186
0.000157253604707
-0.000266268044675
0.000146978071967
-0.000277328753496
0.000136766408107
-0.000287658096465
0.000126773603696
-0.000297289323372
0.000117099136642
-0.000306246285079
0.000107801751841
-0.000314547144991
9.8911093967e-05
-0.000322206890664
9.0436442556e-05
-0.000329238851522
8.23731028605e-05
-0.000335655497541
7.47070379264e-05
-0.000341468779715
6.74182328169e-05
-0.000346690219114
6.04831554223e-05
-0.000351330887977
5.38765664712e-05
-0.000355401370342
4.75728483453e-05
-0.000358911747225
4.15469653379e-05
-0.000361871621237
3.57751320772e-05
-0.000364290178649
3.02352576849e-05
-0.000366176289752
2.49072440211e-05
-0.000367538656849
1.97731630421e-05
-0.000368385940855
1.48171257869e-05
-0.000368726614829
1.00247093506e-05
-0.000368568804154
5.38334938024e-06
-0.000367922399317
8.86373525516e-07
-0.000366800841403
-3.46767018337e-06
-0.000365216392622
-7.68256279476e-06
-0.000363178217463
-1.1769367982e-05
-0.000360697022735
-1.57369720757e-05
-0.000357784331361
-1.95932466456e-05
-0.000354452215604
-2.33458083586e-05
-0.000350713020609
-2.70024565719e-05
-0.000346579089088
-3.05715014534e-05
-0.000342062460509
-3.40620361898e-05
-0.000337174531265
-3.74841558851e-05
-0.000331925670757
-4.08491069396e-05
-0.000326324798659
-4.41693387137e-05
-0.000320378941634
-4.74584213388e-05
-0.000314092802067
-5.07307908839e-05
-0.000307468385914
-5.40012869129e-05
-0.000300504750553
-5.72844572051e-05
-0.000293197940919
-6.05936278672e-05
-0.000285541177117
-6.39397677862e-05
-0.000277525369597
-6.73301780786e-05
-0.000269140005452
-7.07671295527e-05
-0.000260374359509
-7.42466441438e-05
-0.000251219091385
-7.77574006586e-05
-0.000241668035457
-8.12802274013e-05
-0.000231719934881
-8.47882193056e-05
-0.000221380818848
-8.82464714829e-05
-0.000210665336459
-9.16145829132e-05
-0.00019959871679
-9.48473998742e-05
-0.00018821748227
-9.78989520909e-05
-0.000176569931735
-0.000100725242005
-0.000164716027022
-0.000103287893214
-0.000152727344475
-0.000105557601578
-0.000140682170678
-0.000107523423511
-0.000128671168208
-0.00010918056092
-0.000116784885844
-0.00011056376455
-0.000105112562669
-0.000111723135634
-9.37515307254e-05
-0.000112719513171
-8.27907339024e-05
-0.00011367526607
-7.22868555286e-05
-0.00011475592845
-6.22975389085e-05
-0.000116091482414
-5.28502459864e-05
-0.000117897967959
-4.3931402397e-05
-0.000120406261565
-3.54713776331e-05
-0.000123841532082
-2.7303410889e-05
-0.000128371353085
-1.91323464526e-05
-0.000133920480767
-1.01398910052e-05
-0.000139551823753
-0.000135178960676
-3.11054295225e-05
0.000176435979735
-6.0423831272e-05
0.000197700836662
-8.72513055363e-05
0.000210190219542
-0.000111519859397
0.000217980107982
-0.000133376869605
0.000221078713011
-0.000153062044759
0.000220168307314
-0.000170849907798
0.00021593525307
-0.00018701074589
0.000209140844101
-0.000201789519833
0.000200490745003
-0.000215395002015
0.00019059874172
-0.000227995094238
0.000179965160807
-0.000239717911765
0.00016897642087
-0.000250656778647
0.000157916937435
-0.000260877278674
0.000146986906669
-0.000270424617535
0.000136320941042
-0.000279330095511
0.000126004613057
-0.000287616115119
0.00011608776984
-0.000295299656191
0.000106594633389
-0.000302394453485
9.75312381621e-05
-0.000308912226483
8.88908741336e-05
-0.000314863301221
8.06581109073e-05
-0.000320256894134
7.28118239388e-05
-0.000325101243367
6.53275028308e-05
-0.000329403698522
5.81790197626e-05
-0.000333170824365
5.13399722815e-05
-0.000336408538337
4.47846773495e-05
-0.000339122280429
3.84888721507e-05
-0.000341317200619
3.24301757889e-05
-0.000342998348581
2.65883898285e-05
-0.00034417087461
2.09456868428e-05
-0.000344840271204
1.54865200598e-05
-0.000345012422429
1.01968581513e-05
-0.000344692423389
5.06334780161e-06
-0.000343882768336
7.67159470468e-08
-0.00034259905353
-4.75138748453e-06
-0.000340856738748
-9.42488003329e-06
-0.000338660601355
-1.39655077983e-05
-0.000336020588301
-1.83769875288e-05
-0.000332948502803
-2.26653345229e-05
-0.000329457311332
-2.68370021974e-05
-0.000325560717885
-3.08990523802e-05
-0.000321272833932
-3.48593877698e-05
-0.000316607838732
-3.87270337597e-05
-0.000311579587935
-4.25124090695e-05
-0.000306201151499
-4.62275457856e-05
-0.000300484278537
-4.98862141221e-05
-0.000294438804987
-5.3503897377e-05
-0.000288072041836
-5.70975565766e-05
-0.000281388201703
-6.06851296486e-05
-0.000274387943564
-6.42847180155e-05
-0.000267068138382
-6.7913435792e-05
-0.000259421929347
-7.15859796368e-05
-0.000251439207149
-7.53129031603e-05
-0.000243107635022
-7.90987046272e-05
-0.000234414007474
-8.2940274689e-05
-0.000225346204036
-8.68252071377e-05
-0.000215895546936
-9.07308875627e-05
-0.000206058343502
-9.4625425823e-05
-0.000195839787277
-9.8465030795e-05
-0.000185254775856
-0.000102199597434
-0.000174331159139
-0.00010577101971
-0.000163110355962
-0.0001091197584
-0.000151648166235
-0.000112187434932
-0.00014001432448
-0.000114921738202
-0.000128294706603
-0.000117277222793
-0.000116581277576
-0.00011923685595
-0.0001049841561
-0.000120777685889
-9.36186304532e-05
-0.00012192929376
-8.2593362939e-05
-0.000122748406766
-7.20260413619e-05
-0.00012328683851
-6.20477783344e-05
-0.000123653532936
-5.27365062884e-05
-0.000124067204498
-4.41715744798e-05
-0.000124656418321
-3.64063911883e-05
-0.000125663155507
-2.94482918468e-05
-0.000127364365197
-2.3248251167e-05
-0.000130041577125
-1.76588309086e-05
-0.000133960777009
-1.24524034006e-05
-0.000139126911073
-6.82730916334e-06
-0.000145176924377
-0.000142006270514
-2.90409152896e-05
0.000205476891682
-5.66373387545e-05
0.000225297259471
-8.19405677432e-05
0.000235493447992
-0.000104832238849
0.000240871778374
-0.000125426876518
0.000241673349835
-0.000143938877327
0.000238680307201
-0.000160626668051
0.000232623042824
-0.000175753556852
0.000224267731893
-0.000189560720186
0.00021429790729
-0.000202253336829
0.000203291357275
-0.000213995136964
0.000191706959808
-0.00022491006261
0.000179891345334
-0.000235088151279
0.000168095024874
-0.000244593125151
0.000156491879261
-0.000253469745132
0.000145197559694
-0.000261749850168
0.000134284716715
-0.000269456745122
0.000123794663371
-0.000276608082926
0.000113745969727
-0.000283217603464
0.000104140757194
-0.000289296121136
9.49693902622e-05
-0.000294852085186
8.62140733787e-05
-0.000299891938635
7.7851675773e-05
-0.000304420410933
6.9855973475e-05
-0.000308440810842
6.21994179744e-05
-0.00031195534104
5.48545007275e-05
-0.000314965431661
4.77947661574e-05
-0.00031747208179
4.09955203915e-05
-0.000319476196318
3.44342883504e-05
-0.000320978888114
2.80910795743e-05
-0.000321981699582
2.19484961616e-05
-0.000322486737734
1.59915559381e-05
-0.000322496995297
1.02071133274e-05
-0.000322017831856
4.58418189258e-06
-0.000321059146501
-8.81971936367e-07
-0.000319622767096
-6.18776935073e-06
-0.000317710423584
-1.13372259546e-05
-0.000315334931007
-1.63410027528e-05
-0.000312508255191
-2.12036656943e-05
-0.000309243388187
-2.5930203863e-05
-0.000305554436274
-3.05259564365e-05
-0.000301456515308
-3.49969756748e-05
-0.000296965536896
-3.93503685185e-05
-0.000292097911963
-4.35946610495e-05
-0.000286870157624
-4.77401657929e-05
-0.000281298388473
-5.17993173638e-05
-0.000275397682355
-5.57869227148e-05
-0.000269181330182
-5.97202520896e-05
-0.000262660011695
-6.36188776725e-05
-0.000255840967736
-6.75041762952e-05
-0.000248727259289
-7.13984292327e-05
-0.000241317288482
-7.53234094501e-05
-0.000233604650776
-7.929862027e-05
-0.000225578450654
-8.33391062789e-05
-0.000217224578707
-8.74525796206e-05
-0.00020852716822
-9.16376882713e-05
-0.000199470867595
-9.58815108762e-05
-0.000190044509491
-0.000100157248807
-0.000180240998245
-0.000104428940215
-0.00017006469922
-0.000108641332978
-0.000159530202274
-0.000112734097577
-0.000148667999536
-0.000116633225669
-0.000137524482126
-0.000120263279117
-0.000126163426533
-0.000123548493906
-0.000114664155012
-0.0001264210132