/*--------------------------------*- C++ -*----------------------------------*\
| =========                 |                                                 |
| \\      /  F ield         | OpenFOAM: The Open Source CFD Toolbox           |
|  \\    /   O peration     | Version:  v1806                                 |
|   \\  /    A nd           | Web:      www.OpenFOAM.com                      |
|    \\/     M anipulation  |                                                 |
\*---------------------------------------------------------------------------*/
FoamFile
{
    version     2.0;
    format      ascii;
    class       surfaceScalarField;
    location    "1000";
    object      phia;
}
// * * * * * * * * * * * * * * * * * * * * * * * * * * * * * * * * * * * * * //

dimensions      [0 3 -1 0 0 0 0];
oriented        oriented;


internalField   nonuniform List<scalar> 
12640
(
-0.00357203638001
0.00357211351934
-0.00763045991502
0.00405852950357
-0.0119079222248
0.0042775716054
-0.0145149363166
0.00260710985252
-0.0156350363246
0.00112022328042
-0.0174341356951
0.00179921670976
-0.0187881154916
0.00135407151348
-0.0199223161878
0.0011342800625
-0.0208712749534
0.000949032500649
-0.0216591852114
0.000787980505464
-0.0223171011124
0.000657982587888
-0.0228696209718
0.000552584888458
-0.023334210105
0.000464652319533
-0.0237242833755
0.000390136549541
-0.0240510070242
0.000326786724254
-0.024323849084
0.000272906556926
-0.0245507703846
0.000226986801973
-0.0247384007241
0.000187698146663
-0.0248922357759
0.000153904695113
-0.0250168122563
0.000124648995453
-0.025115865643
9.91283055335e-05
-0.0251924634183
7.66759175872e-05
-0.025249126963
5.67444741143e-05
-0.0252879327374
3.88901294314e-05
-0.0253106025787
2.27572319504e-05
-0.0253185761246
8.06445658832e-06
-0.0253130747307
-5.40729731352e-06
-0.0252951545214
-1.78225692932e-05
-0.0252657508381
-2.93027653939e-05
-0.0252257432475
-3.99031576626e-05
-0.0251760224328
-4.96130503538e-05
-0.0251179216112
-5.79895849995e-05
-0.0250536598361
-6.41470789017e-05
-0.0249875060841
-6.60355464046e-05
-0.0249130913888
-7.42931149372e-05
-0.0247700552261
-0.000142911569822
-0.0245676074047
-0.000202320237451
-0.024316630314
-0.000250847068954
-0.0240390462455
-0.000277451560293
-0.0237442341815
-0.000294677719813
-0.023438661866
-0.000305436035644
-0.0231263399736
-0.000312184519653
-0.0228099235664
-0.000316277838191
-0.0224913132644
-0.000318471514358
-0.0221720103565
-0.000319163776705
-0.0218533288573
-0.000318543083493
-0.0215365020861
-0.000316688911847
-0.0212227433147
-0.000313622559389
-0.0209132848725
-0.000309323674099
-0.0206094148987
-0.000303737728123
-0.020312504239
-0.00029678067949
-0.0200240315487
-0.000288346003247
-0.0197455951469
-0.000278312690319
-0.0194789172286
-0.000266558129595
-0.0192258263908
-0.000252974587745
-0.0189882229691
-0.00023749155794
-0.0187680140705
-0.000220100967879
-0.0185670253415
-0.000200885470196
-0.0183868809768
-0.000180045253641
-0.0182288642489
-0.000157922393409
-0.0180937565394
-0.0001350175526
-0.0179816725794
-0.000111998502525
-0.017891894026
-8.96971227168e-05
-0.0178227205502
-6.90964965143e-05
-0.0177713360318
-5.13112688132e-05
-0.0177337057183
-3.75611445689e-05
-0.0177044800401
-2.91598687095e-05
-0.0176769434514
-2.74744300484e-05
-0.0176428830516
-3.40011598201e-05
-0.0175926744544
-5.01523229792e-05
-0.0175147809024
-7.78395685312e-05
-0.0173969895311
-0.000117739058392
-0.01722342859
-0.000173510528173
-0.0169852963635
-0.00023808133454
-0.016653415068
-0.000331833990507
-0.016251286294
-0.000402079347049
-0.0155638658221
-0.000687374861931
-0.0146549717591
-0.000908855225359
-0.00995005931795
-0.00470479289019
-0.00995001841039
-0.00156045946959
0.0051327282989
-0.0049830005822
0.00748123731294
-0.00742212764681
0.00671683781895
-0.0107607918539
0.00594584796685
-0.0145437762853
0.00490326050621
-0.0169903351297
0.00424581530217
-0.0193618817678
0.00372565704559
-0.0215861158151
0.00335855093488
-0.0236908077796
0.0030537626949
-0.0256788014197
0.00277601098422
-0.0275399207703
0.0025191390462
-0.0292692737449
0.00228197368399
-0.030867872225
0.00206328667464
-0.0323401557041
0.0018624554193
-0.0336924205966
0.00167908745535
-0.0349319048535
0.00151242709685
-0.0360661619153
0.00136128107812
-0.0371026421678
0.001224216857
-0.0380484426341
0.00109974496577
-0.0389101736874
0.000986421732302
-0.039693902029
0.000882900003017
-0.0404051366336
0.000787956251487
-0.041048844653
0.000700500140776
-0.0416294788754
0.000619574751366
-0.042151016559
0.000544347410446
-0.0426169959878
0.000474099417812
-0.0430305593952
0.000408213861631
-0.0433944857374
0.000346164778248
-0.0437112430616
0.000287517874463
-0.0439829918697
0.000231912367626
-0.0442116568794
0.000179121035998
-0.044398473439
0.000128899565105
-0.0445443794651
8.1834022494e-05
-0.0446516122083
4.12757161902e-05
-0.0447587858028
3.29613031973e-05
-0.0449382047699
3.65912306408e-05
-0.0451003371361
-4.01024216349e-05
-0.0452081661779
-0.000142930265118
-0.0452534652914
-0.000232063453378
-0.0452302281322
-0.000317824147547
-0.0451336088753
-0.000401963776634
-0.0449611315379
-0.000484569303999
-0.0447107968909
-0.000566519701161
-0.0443804827367
-0.000648692627304
-0.0439679346096
-0.000731619231486
-0.0434708390219
-0.000815546533121
-0.0428868848193
-0.00090055194429
-0.0422138209444
-0.000986596544743
-0.0414495237817
-0.00107353247457
-0.0405920801138
-0.00116109496831
-0.0396398868894
-0.0012488894909
-0.0385917734132
-0.00133637752716
-0.0374471473147
-0.00142285924314
-0.0362061702531
-0.00150745848266
-0.0348699598713
-0.00158911094901
-0.0334408169585
-0.00166656350752
-0.0319224638634
-0.00173838595282
-0.0303202810858
-0.00180300326656
-0.0286415159783
-0.00185874828152
-0.0268954398762
-0.00190393948168
-0.0250934219532
-0.00193697929536
-0.0232488962734
-0.00195647088412
-0.0213772003574
-0.00196134238771
-0.0194952790613
-0.00195096973535
-0.0176212589433
-0.00192528569572
-0.0157739159178
-0.00188486072341
-0.0139720699369
-0.00183096446192
-0.0122339408755
-0.00176556397255
-0.0105765186363
-0.00169138558363
-0.00901493680668
-0.00161169768218
-0.00756191062721
-0.00153083025447
-0.00622714845347
-0.0014524664807
-0.00501673855963
-0.00138388542767
-0.00393253308057
-0.0013222529034
-0.00296899420847
-0.00129533721277
-0.00211801122438
-0.00125303152074
-0.00132721370394
-0.00147813875607
-0.000615921942916
-0.00162010517045
0.000619539098794
-0.00594022679107
-0.00933043963767
-0.00671380982876
0.0118465996233
-0.00879904416883
0.00956655612466
-0.00862766733549
0.00654551178163
-0.00887633895871
0.0061945575307
-0.00965623582135
0.0056831868383
-0.0107047241739
0.00529432807963
-0.0120317088399
0.00505266244663
-0.0134659610516
0.00479282283373
-0.0148835967086
0.00447141712581
-0.0162186004382
0.0041110331495
-0.0174398442828
0.00374040039297
-0.0185360539119
0.00337819997861
-0.0195074802301
0.00303472863087
-0.0203603011864
0.00271529108605
-0.0211032386507
0.00242203887543
-0.0217457906558
0.00215499233862
-0.0222973317312
0.00191283504597
-0.0227666446125
0.00169354221335
-0.0231616948619
0.00149480776216
-0.023489556646
0.0013142959531
-0.023756423616
0.00114977985899
-0.0239676653632
0.000999211056827
-0.0241279024197
0.00086075103259
-0.024241089966
0.000732776553586
-0.0243106002341
0.000613872989458
-0.0243393029137
0.000502818040289
-0.0243296389154
0.000398567093759
-0.0242836871226
0.000300231024989
-0.0242032286689
0.000207078934332
-0.0240897894758
0.000118493621989
-0.0239447651926
3.41187898267e-05
-0.0237693775389
-4.64650186618e-05
-0.0235644213491
-0.000123097439759
-0.0233218204697
-0.000201299328444
-0.0229915323196
-0.000297299761277
-0.0226271470443
-0.000327766485889
-0.0222955266884
-0.000371694473162
-0.022003580033
-0.000434848450708
-0.0217453761228
-0.000490238465586
-0.0215232896457
-0.000539881758035
-0.0213379373217
-0.000587287164896
-0.0211893037948
-0.000633174157536
-0.0210778618408
-0.000677933287869
-0.0210042526866
-0.000722273890115
-0.0209688360607
-0.000767008613117
-0.0209714212989
-0.000812934695078
-0.0210110961863
-0.000860851380625
-0.021086081645
-0.000911586163461
-0.0211935963502
-0.000965993964231
-0.021329730429
-0.00102493788385
-0.0214893336353
-0.00108926450116
-0.0216659184305
-0.00115977173577
-0.021851587123
-0.00123717079777
-0.022036989301
-0.00132203728086
-0.0222113267595
-0.00141475566133
-0.0223624184735
-0.00151545460509
-0.0224768476084
-0.00162394072468
-0.0225402033545
-0.00173963196358
-0.0225374339804
-0.00186150306067
-0.0224533102019
-0.00198804908619
-0.0222729934122
-0.00211728271148
-0.0219826797011
-0.00224677150215
-0.0215702819239
-0.00237372767079
-0.0210260922117
-0.00249514704566
-0.0203433665259
-0.00260799933181
-0.0195187700871
-0.00270944498228
-0.0185526345635
-0.00279708789051
-0.0174490122282
-0.00286917385068
-0.0162154891488
-0.0029248959746
-0.0148628233176
-0.00296435004156
-0.0134042476782
-0.00298939166826
-0.0118547157276
-0.00300198266788
-0.0102286518523
-0.00300993280094
-0.00853914164563
-0.00301174392937
-0.00679087964248
-0.00304358140765
-0.00499771920716
-0.00304617126669
-0.00316451114089
-0.00331133010479
-0.00149795499752
-0.00328665340901
-6.8640273139e-06
-0.00743127176285
-0.00933730729436
-0.0123115643015
0.024158337552
-0.00837887431103
0.00563392488859
-0.00664978426213
0.0048164552901
-0.00691168316612
0.00645648207997
-0.008189390086
0.00696091371299
-0.00991431418589
0.00701926685886
-0.0117457826999
0.00688414238761
-0.0135082346879
0.00655528413009
-0.0151327744032
0.00609596492251
-0.0166059032987
0.0055841688575
-0.0179350974632
0.00506960000133
-0.0191346371888
0.00457774359531
-0.0202205058417
0.00412059938311
-0.0212078685831
0.00370265420309
-0.0221098828683
0.00332405158687
-0.022937462466
0.0029825686962
-0.0236994916117
0.002674859049
-0.0244031490205
0.00239719299717
-0.0250542250448
0.00214587541259
-0.0256574032166
0.00191746450696
-0.0262165024394
0.00170886791719
-0.0267346743795
0.00151737084167
-0.0272145628026
0.00134062597301
-0.0276584276264
0.00117662715266
-0.0280682435417
0.00102367356952
-0.0284457763771
0.000880335029793
-0.0287926401027
0.000745414064576
-0.0291103476344
0.000617921493149
-0.0294003144048
0.000497027898192
-0.0296639243602
0.000382085597652
-0.0299022569518
0.000272432756462
-0.0301164942564
0.000167753595171
-0.0303066577422
6.70468464647e-05
-0.0304816074817
-2.63691268919e-05
-0.0306612134752
-0.000117714101334
-0.0307484530375
-0.000240547833527
-0.0307626034812
-0.000357565895735
-0.0307139140299
-0.000483560465613
-0.0305945307019
-0.000609645280673
-0.0304037818939
-0.000730654832226
-0.0301437745895
-0.000847319585975
-0.029816463351
-0.000960511327336
-0.0294240426051
-0.00107038067213
-0.0289693561275
-0.00117698777451
-0.0284559197546
-0.00128047287479
-0.0278879041134
-0.00138097885717
-0.0272701673901
-0.00147861680993
-0.0266082946547
-0.00157348801832
-0.0259086059582
-0.00166571161702
-0.0251781272184
-0.00175544571281
-0.0244245167562
-0.00184290351937
-0.0236559452594
-0.00192837160851
-0.0228809165256
-0.00201222701763
-0.0221080254816
-0.00209495532037
-0.0213456433739
-0.00217716356419
-0.0206015347715
-0.00225958823613
-0.0198824097737
-0.00234308931226
-0.0191934359682
-0.00242862837391
-0.0185377381882
-0.00251722184979
-0.0179159367626
-0.00260987037963
-0.0173257746541
-0.00270746299931
-0.0167618957598
-0.00281066731233
-0.0162158217338
-0.00291981684764
-0.0156761668926
-0.00303481563961
-0.0151290982059
-0.00315507990218
-0.0145590291314
-0.00327952438053
-0.0139495007169
-0.00340662463711
-0.0132842043899
-0.00353447677123
-0.012548072613
-0.00366103217489
-0.0117284402291
-0.00378398480786
-0.0108160805731
-0.00390175110137
-0.0098064557248
-0.00401160507138
-0.00869967001956
-0.00411671297122
-0.00750219746608
-0.00420921006173
-0.00622031634815
-0.0043254526335
-0.00487595145376
-0.0043905288213
-0.00346707336626
-0.00472019936375
-0.00213521798823
-0.00461849016734
-0.000631407474882
-0.0089350946387
-0.00996870544705
-0.00279322813587
0.0269515742197
-0.00147302504196
0.0043137441711
-0.00342619123003
0.00676964350825
-0.0058591815245
0.00888949096018
-0.0081628369398
0.00926458379452
-0.0102718679597
0.00912830906387
-0.0121065290144
0.00871881175566
-0.0136642155118
0.00811297699513
-0.0149923920186
0.0074241462468
-0.0161414566675
0.00673323699984
-0.0171505909803
0.00607873639987
-0.0180486610307
0.00547581414438
-0.0188566363699
0.00492857353004
-0.0195893372313
0.00443535192691
-0.0202569333774
0.0039916426868
-0.0208662891382
0.00359191725293
-0.0214220370543
0.00323059777799
-0.0219273479128
0.00290249244306
-0.0223844510264
0.0026029651659
-0.022794979183
0.00232797711063
-0.0231601920026
0.00207406333858
-0.023481117921
0.00183827726251
-0.02375863951
0.00161812635791
-0.0239935439129
0.00141150837772
-0.0241865497723
0.00121665469767
-0.0243383209721
0.00103207966128
-0.0244494724983
0.000856537615598
-0.0245205655993
0.000688984905085
-0.0245521126162
0.00052854392346
-0.0245445346203
0.000374474967032
-0.0244982462039
0.000226110462541
-0.0244133515075
8.28234552693e-05
-0.0242898201372
-5.65212158474e-05
-0.0241223947308
-0.00019383282965
-0.0239251695833
-0.000314979144412
-0.0237417665877
-0.000423992249038
-0.0235670961159
-0.000532279104296
-0.0234107669928
-0.000639933715934
-0.0232724034192
-0.000748054200738
-0.0231483296997
-0.000854775048806
-0.0230356949544
-0.000960001870938
-0.0229315634004
-0.00106469124981
-0.0228323701839
-0.0011696230305
-0.0227340283837
-0.00127537913936
-0.0226320225424
-0.00138252869684
-0.0225214274419
-0.00149162389133
-0.0223969581881
-0.00160313599054
-0.022253077006
-0.00171741857574
-0.0220841464706
-0.00183469106224
-0.0218846181292
-0.00195502190832
-0.0216492558967
-0.00207831268156
-0.0213733860901
-0.00220428682154
-0.0210531661898
-0.00233249097758
-0.0206858528362
-0.00246231081446
-0.0202700490742
-0.00259300776768
-0.0198058984166
-0.00272377711976
-0.0192951939357
-0.00285383006336
-0.0187413629848
-0.00298249320076
-0.0181492981593
-0.00310931844545
-0.0175250114393
-0.00323418640997
-0.0168751127465
-0.00335738883643
-0.016206136301
-0.00347966845092
-0.0155237689229
-0.0036022067313
-0.0148320581331
-0.00372654650463
-0.0141326928098
-0.00385446308587
-0.013424459289
-0.00398777334854
-0.0127029490272
-0.00412814811733
-0.0119606063921
-0.00427683024455
-0.01118715405
-0.00443449310742
-0.0103705003557
-0.0046006446022
-0.009498079779
-0.00477417540596
-0.00855919914345
-0.00495048671074
-0.00754727343661
-0.0051286380009
-0.00646515266795
-0.00529132732741
-0.00532255119734
-0.00546805131985
-0.00415253021022
-0.00556054410133
-0.00295639277465
-0.00591633345671
-0.0018575560466
-0.00571733547809
-0.000478859993644
-0.0103137758964
-0.0104475759298
-0.000147384446558
0.0270990267952
-0.000596414765167
0.00476280007796
-0.00409745052982
0.0102706956963
-0.00703280731966
0.0118248612483
-0.00932187770536
0.0115536652581
-0.0111612530542
0.0109676931669
-0.012622940595
0.0101805061685
-0.0138018258449
0.00929186758418
-0.0147935318319
0.00841585639886
-0.0156647284949
0.00760443671278
-0.0164561659863
0.00687017579201
-0.0171922118397
0.00621186062349
-0.017886960697
0.00562332152251
-0.0185479067471
0.00509629551463
-0.0191784662495
0.00462219787669
-0.0197797086529
0.00419315348201
-0.020351469571
0.00380235041908
-0.020893026756
0.00344403933496
-0.0214034929448
0.00311341882179
-0.0218820309626
0.00280650052007
-0.0223279623357
0.00251997781455
-0.0227408125669
0.00225110852735
-0.0231203228635
0.00199761540951
-0.0234664440157
0.00175760626232
-0.023779324672
0.00152950985304
-0.0240592975567
0.0013120250863
-0.0243068689717
0.00110407939232
-0.0245227077222
0.00090479210704
-0.0247076439213
0.000713446426609
-0.024862650355
0.000529445804897
-0.0249889052275
0.000352327615026
-0.0250877719055
0.000181650597436
-0.0251618245083
1.7489757553e-05
-0.0252152316016
-0.000140469450917
-0.0252247170179
-0.000305539453708
-0.0251804583883
-0.000468298194461
-0.0250843496895
-0.000628436678557
-0.0249373048139
-0.000787028849265
-0.0247423443741
-0.000943066122226
-0.0245021485572
-0.00109502342625
-0.0242201089458
-0.00124209485272
-0.0239004723197
-0.0013843819377
-0.0235478820898
-0.00152226764691
-0.023167142506
-0.00165617334175
-0.0227630974524
-0.00178662816214
-0.022340464932
-0.00191431055305
-0.0219036380196
-0.00204001629235
-0.0214564937471
-0.00216461545435
-0.0210022215165
-0.00228901462079
-0.0205431785245
-0.00241411495385
-0.0200807807725
-0.00254075873151
-0.0196154453816
-0.00266966879788
-0.0191465954552
-0.00280138533452
-0.0186727403869
-0.00293620824363
-0.0181916362537
-0.00307415181043
-0.0177005279224
-0.00321492303752
-0.0171964601064
-0.00335793284009
-0.0166766348838
-0.00350235092869
-0.0161387742963
-0.0036472088691
-0.0155814376959
-0.00379155037684
-0.0150042297387
-0.00393462155416
-0.0144078434366
-0.0040760771082
-0.0137938897012
-0.00421618032829
-0.013164503379
-0.00435595037048
-0.0125217363601
-0.00449724527279
-0.0118668230865
-0.00464269957098
-0.0111993754984
-0.00479560645641
-0.0105166883133
-0.00495952608013
-0.00981325041677
-0.00513793768984
-0.00908066545047
-0.0053332342224
-0.00830806237697
-0.00554678120521
-0.00748371010546
-0.00577483993749
-0.00659696195877
-0.00601538535222
-0.00564412738316
-0.00624416107285
-0.00462767395451
-0.00648450227896
-0.00357734601683
-0.00661087164075
-0.00249619152416
-0.00699748703715
-0.0015427458806
-0.00667077412861
-0.000297851358578
-0.0115586896548
-0.0107454286819
0.000541117708538
0.0265578823264
-0.00151539082274
0.00681930815779
-0.00557778966186
0.0143331014706
-0.00821244182564
0.0144595215694
-0.010039533469
0.0133807648658
-0.0113960203614
0.0123241872848
-0.0124233844749
0.0112078765201
-0.013253750029
0.0101222385027
-0.0139821895601
0.00914430042182
-0.0146610855589
0.00828333642807
-0.0153163406754
0.00752543377106
-0.0159594846699
0.00685500654946
-0.016593918601
0.00625775630593
-0.0172185167008
0.00572089320988
-0.0178299057354
0.00523358512235
-0.0184238346865
0.00478707906303
-0.018995939576
0.00437445029896
-0.0195421451721
0.00399023810056
-0.0200588534195
0.0036301184319
-0.0205430075123
0.00329064400629
-0.0209920860095
0.00296904380776
-0.0214040625452
0.00266307051353
-0.0217773510727
0.00237088745516
-0.0221107491919
0.00209098582856
-0.0224033845569
0.00182212473317
-0.022654668161
0.0015632861375
-0.022864253426
0.00131364017985
-0.0230320044174
0.00107251655255
-0.0231579636848
0.000839377205979
-0.0232423472299
0.000613798779813
-0.0232854757974
0.000395423694848
-0.023287850073
0.00018399034137
-0.0232494800927
-2.09166631493e-05
-0.0231709643
-0.000219023744753
-0.0230703152177
-0.000406228787367
-0.0229520856052
-0.000586569460299
-0.0228183746945
-0.000762190496106
-0.0226713101573
-0.000934137364723
-0.0225112325403
-0.00110318864081
-0.0223369988466
-0.00126930268866
-0.0221467426218
-0.00143239717462
-0.0219384334612
-0.00159273740769
-0.0217100029691
-0.00175074453091
-0.0214594248431
-0.00190679758848
-0.0211848694363
-0.00206122930245
-0.0208848517029
-0.00221437326542
-0.0205583340421
-0.0023665780798
-0.0202047894512
-0.00251820295979
-0.0198242297421
-0.00266961595621
-0.0194171929257
-0.00282119177418
-0.018984687715
-0.00297330227343
-0.0185280969182
-0.0031262959622
-0.0180490487708
-0.00328046786637
-0.0175492680605
-0.00343602112272
-0.0170304256136
-0.00359302422748
-0.01649400697
-0.00375136929105
-0.0159412249698
-0.00391074015011
-0.0153729973071
-0.00407060152039
-0.0147900027099
-0.00423022411582
-0.0141928177497
-0.00438875369468
-0.013582107077
-0.00454534841965
-0.0129588286285
-0.00469936961013
-0.0123243794567
-0.00485064153397
-0.0116806269749
-0.00499971290306
-0.011029733508
-0.00514814688925
-0.010373803207
-0.00529863625873
-0.00971427029236
-0.00545514398061
-0.00905121518882
-0.00562258443236
-0.00838264597701
-0.00580650856638
-0.00770398867077
-0.00601189213613
-0.00700784041954
-0.00624292866647
-0.00628474669816
-0.00649793210816
-0.00552420205597
-0.00677592800925
-0.00471947639935
-0.00704888460469
-0.00386643041703
-0.00733754776141
-0.00298711042681
-0.00749019043457
-0.00207723962419
-0.00790735769957
-0.00131854773789
-0.00742947698503
-0.000222635250522
-0.0126546021571
-0.0109680728056
0.000591131600675
0.0259667672456
-0.00255969353603
0.00997013723287
-0.00657462682193
0.0183480375308
-0.00864615457073
0.0165310537391
-0.00999642181728
0.0147310374759
-0.0109641052978
0.0132918764549
-0.0117040301461
0.0119478070373
-0.0123446758178
0.0107628894863
-0.0129569523323
0.00975658185967
-0.013570938503
0.00889732700255
-0.0141972274394
0.00815172659431
-0.0148368292918
0.00749461163959
-0.0154856670481
0.00690659656566
-0.0161372836473
0.00637251141827
-0.0167844944969
0.00588079654602
-0.0174202833475
0.00542286731668
-0.0180382439077
0.00499240894715
-0.018632772371
0.00458476325488
-0.0191991195686
0.00419646079777
-0.0197333631185
0.00382488117302
-0.0202323388702
0.00346801151856
-0.0206935566313
0.00312427858906
-0.0211151154329
0.00279243483668
-0.0214956256519
0.00247148293536
-0.0218341421064
0.00216062630628
-0.0221301081298
0.00185923556578
-0.0223833122586
0.00156682592668
-0.0225938522016
0.00128303637388
-0.0227621162159
0.00100761928904
-0.022888753155
0.000740412030815
-0.0229747067624
0.000481351834757
-0.0230211286196
0.000230385088472
-0.0230296268904
-1.24472816288e-05
-0.0230008650037
-0.000247816222775
-0.0229290026224
-0.0004781230316
-0.0228142570574
-0.00070134790291
-0.0226582916234
-0.000918189631823
-0.0224635743075
-0.00112888907706
-0.0222333278174
-0.00133346998622
-0.021970822061
-0.00153184363168
-0.0216792721085
-0.00172398237962
-0.0213618945877
-0.00191015012026
-0.0210217868279
-0.00209088714382
-0.0206617312936
-0.00226688751568
-0.0202840571575
-0.0024389370991
-0.0198905656775
-0.00260789756131
-0.0194824965424
-0.00277467893389
-0.0190605358797
-0.00294019414328
-0.0186248704864
-0.00310531045078
-0.0181752844443
-0.0032708054107
-0.017711285778
-0.00343732684756
-0.0172322484252
-0.00360535746933
-0.0167375524883
-0.00377518607643
-0.0162267059609
-0.00394688800363
-0.0156994331594
-0.00412031539588
-0.0151557200563
-0.00429509877505
-0.0145958160815
-0.00447065852032
-0.0140202029344
-0.00464622712725
-0.0134295474169
-0.00482089021417
-0.0128246788515
-0.00499363105089
-0.012206595164
-0.00516343919058
-0.0115765344731
-0.0053294357538
-0.0109360605759
-0.00549111937724
-0.0102871770609
-0.00564859880811
-0.00963229902117
-0.00580302604871
-0.008974199656
-0.00595673526108
-0.00831559464042
-0.00611374763937
-0.00765872486458
-0.00627945170013
-0.00700467458113
-0.00646055574089
-0.00635287169681
-0.00666369121302
-0.00570061767588
-0.00689517855471
-0.00504347450831
-0.00715507084647
-0.00437590120714
-0.00744349741403
-0.00369483630947
-0.00772994700132
-0.00299734864144
-0.00803503443949
-0.00230355596812
-0.0081839837308
-0.00160060380882
-0.00861031204729
-0.00107754390751
-0.00795253598805
-0.0001557560951
-0.0135764057559
-0.0111238363719
0.000446034438492
0.0255207002418
-0.00352263318754
0.0139387923233
-0.00708761534637
0.0219130163443
-0.00851758940401
0.0179610282689
-0.00947888122321
0.0156923322453
-0.0101860685944
0.0139990681762
-0.0107721017756
0.0125338451224
-0.0113370095951
0.0113278023374
-0.0119209037869
0.0103404808448
-0.0125347250584
0.00951115276887
-0.013178352675
0.00879535827205
-0.013846227183
0.0081624897634
-0.0145299823027
0.0075903547234
-0.0152202906259
0.0070628221253
-0.0159079781983
0.00656848569894
-0.0165845863195
0.00609947610803
-0.0172426199983
0.00565044226216
-0.0178756265442
0.00521776830465
-0.018478176063
0.00479900760757
-0.0190457866924
0.00439248780201
-0.0195748243332
0.00399704382595
-0.0200623966276
0.00361184415845
-0.0205062524535
0.00323628253408
-0.0209046926237
0.00286991353369
-0.0212564936945
0.00251241636884
-0.0215608448178
0.00216357421836
-0.0218172970358
0.00182326421909
-0.022025722054
0.00149144599161
-0.0221862835061
0.00116816386811
-0.0222994071625
0.000853517357326
-0.0223657770254
0.000547701969178
-0.0223862837675
0.000250870727898
-0.0223622294878
-3.65239965273e-05
-0.0222960695391
-0.000313999857493
-0.0221927247877
-0.000581492267478
-0.0220536228513
-0.000840474876266
-0.0218805865858
-0.0010912513832
-0.0216751509767
-0.00133435041107
-0.021438553524
-0.00157009329954
-0.0211718269151
-0.00179859601767
-0.0208759132435
-0.00201992164126
-0.0205518485451
-0.00223424000226
-0.020200873939
-0.00244188642561
-0.0198244465679
-0.00264333884732
-0.0194242069265
-0.00283919988843
-0.0190019244109
-0.00303020222726
-0.0185594167703
-0.00321720763447
-0.018098448379
-0.00340118234823
-0.0176206253379
-0.00358315197231
-0.0171273061767
-0.00376414160056
-0.0166195435627
-0.00394510496395
-0.0160980676069
-0.00412684732856
-0.0155633155475
-0.00430995038837
-0.0150155038518
-0.00449471028016
-0.0144547321758
-0.0046810959642
-0.0138810982075
-0.00486873997957
-0.0132948023839
-0.00505695996055
-0.012696225469
-0.00524480811667
-0.0120859525324
-0.00543116576041
-0.0114647928604
-0.0056147919653
-0.0108337499551
-0.00579448200798
-0.0101940527135
-0.0059691317626
-0.00954714815973
-0.0061380213883
-0.00889485405662
-0.00630088941532
-0.00823929065864
-0.00645858462054
-0.007583119322
-0.00661290090767
-0.00692915237767
-0.00676770794795
-0.00628038508292
-0.00692821184133
-0.00563940953486
-0.00710152399757
-0.00500834324517
-0.00729474995445
-0.00438834167793
-0.00751517286445
-0.00377999287664
-0.00776341298588
-0.00318448260956
-0.00803900238421
-0.00260641899135
-0.0083080080009
-0.00204889866903
-0.00859255441623
-0.00153388265509
-0.00869900214471
-0.00105028330093
-0.00909391261004
-0.000767404162589
-0.00823542549259
-3.59121991865e-05
-0.0143079092758
-0.0111597551792
0.000225751979549
0.0252949460634
-0.00425872097807
0.0184232585717
-0.00711748944606
0.0247717791286
-0.00798604891248
0.0188295858837
-0.00870780210903
0.0164140864176
-0.00928234716441
0.0145736161605
-0.00981673875896
0.0130682407705
-0.0103771459355
0.0118882139191
-0.0109794247655
0.0109427640969
-0.011623528774
0.010155260923
-0.0123039359559
0.00947576929954
-0.0130118451656
0.00887040239669
-0.0137368505091
0.0083153630631
-0.0144683177542
0.00779429180606
-0.0151961984391
0.00729636820616
-0.0159114284665
0.00681470720438
-0.0166060888294
0.00634510287612
-0.0172734296659
0.00588510846057
-0.0179078133721
0.00543338965068
-0.0185046146962
0.0049892864005
-0.0190601041142
0.00455252942477
-0.0195713316074
0.00412306668776
-0.0200360199904
0.00370096479772
-0.020452472169
0.00328635840875
-0.020819493144
0.0028794288649
-0.0211363261533
0.0024803975552
-0.0214026018705
0.00208952909217
-0.0216182968909
0.0017071289745
-0.0217837077415
0.00133356153028
-0.0218994174682
0.000969212743521
-0.0219663261999
0.000614595314257
-0.0219855674941
0.000270095636477
-0.0219587757158
-6.3333144516e-05
-0.0218860989516
-0.000386694814758
-0.0217677012454
-0.000699908477502
-0.0216054182038
-0.00100277664568
-0.0214012824096
-0.00129540594474
-0.0211577961259
-0.00157785542167
-0.0208776875197
-0.00185022041194
-0.0205637016661
-0.00211260007731
-0.0202184909123
-0.00236515013014
-0.0198445835563
-0.00260816454178
-0.0194443720577
-0.00284211440119
-0.0190200906771
-0.0030676359174
-0.0185737978327
-0.00328550750198
-0.0181073750861
-0.00349663874086
-0.0176225340563
-0.0037020613229
-0.017120819847
-0.00390290802594
-0.0166036064638
-0.00410037555988
-0.0160720855904
-0.00429567133972
-0.0155272530181
-0.0044899450302
-0.0149699003003
-0.00468420611256
-0.0144006218414
-0.00487923349652
-0.0138198430564
-0.00507549227516
-0.013227879424
-0.00527306141674
-0.0126250163231
-0.00547160353961
-0.0120116014826
-0.00567037398184
-0.011388144645
-0.00586826291177
-0.0107553460643
-0.00606396120875
-0.0101141779037
-0.00625595584904
-0.00946581974918
-0.00644283498777
-0.00881173294253
-0.00662321227864
-0.00815350956478
-0.00679623754063
-0.00749312783815
-0.00696126291005
-0.00683262165578
-0.0071190815926
-0.00617471010212
-0.00727080231883
-0.00552208176501
-0.00742032540779
-0.00487811135066
-0.00757217153584
-0.00424601329768
-0.00773361158059
-0.00363004087759
-0.0079107128803
-0.00303437182294
-0.00811083327386
-0.00246449503785
-0.00833328244281
-0.00193006962433
-0.00857342308368
-0.00144454087025
-0.00879353409541
-0.00102245716097
-0.0090146404256
-0.000673181156085
-0.00904827982771
-0.000456135815622
-0.00931096389165
-0.000372759382178
-0.00831880761323
0.000243854257308
-0.0149245341517
-0.010915913688
-2.45512985075e-06
0.0252973717097
-0.00473932524784
0.0231601118652
-0.00679005839683
0.0268225036565
-0.00726462473036
0.0193041478454
-0.00788066507709
0.0170301260523
-0.00840319720982
0.0150961500211
-0.00893703999011
0.0136020866043
-0.00951952035804
0.0124706979152
-0.0101526203569
0.011575867692
-0.0108318116062
0.0108344555643
-0.0115490373377
0.0101929980434
-0.012293698993
0.00961506671863
-0.0130542132341
0.00907587952332
-0.013819196179
0.00855927652684
-0.0145781271825
0.0080553004126
-0.0153216613886
0.00755824200768
-0.0160417328686
0.00706517422027
-0.0167315330363
0.00657490772775
-0.0173854194071
0.00608727425533
-0.0179987918068
0.00560265615294
-0.018567960886
0.00512169490271
-0.0190900229881
0.00464512423775
-0.0195627486658
0.00417368492332
-0.0199844873006
0.00370809051502
-0.020354087514
0.0032490215415
-0.0206708324591
0.0027971339972
-0.0209343868501
0.00235307398635
-0.0211447557501
0.00191748743928
-0.0213022507557
0.0014910451429
-0.021407461827
0.00107441156989
-0.021461238027
0.000668358434466
-0.0214646227495
0.000273466570938
-0.0214189197491
-0.000109050626152
-0.0213259726146
-0.000479656838067
-0.0211873832966
-0.00083851272613
-0.0210046373746
-0.00118553738155
-0.0207794949377
-0.00152056301442
-0.0205138601866
-0.00184350446912
-0.0202097944487
-0.00215430004734
-0.0198694923097
-0.00245291557412
-0.0194952663393
-0.00273938885698
-0.0190895463349
-0.00301389657707
-0.018654865942
-0.00327680603641