/*--------------------------------*- C++ -*----------------------------------*\
| =========                 |                                                 |
| \\      /  F ield         | OpenFOAM: The Open Source CFD Toolbox           |
|  \\    /   O peration     | Version:  v1806                                 |
|   \\  /    A nd           | Web:      www.OpenFOAM.com                      |
|    \\/     M anipulation  |                                                 |
\*---------------------------------------------------------------------------*/
FoamFile
{
    version     2.0;
    format      ascii;
    class       surfaceScalarField;
    location    "1000";
    object      phia;
}
// * * * * * * * * * * * * * * * * * * * * * * * * * * * * * * * * * * * * * //

dimensions      [0 3 -1 0 0 0 0];
oriented        oriented;


internalField   nonuniform List<scalar> 
12640
(
-0.00160977933869
0.00160981827723
-0.00301244906169
0.00140271351461
-0.00441469195192
0.00140229235402
-0.00628859141253
0.00187394730326
-0.00765644238037
0.00136790895624
-0.00924262024109
0.00158624053608
-0.0103999074599
0.00115733401531
-0.0112856453635
0.000885779333831
-0.0119938875849
0.000708281156778
-0.0125726900607
0.000578839841504
-0.0130507360718
0.000478081673204
-0.0134476048045
0.000396903659795
-0.0137779691069
0.000330398342704
-0.0140533521184
0.000275417188289
-0.0142829650226
0.000229647022427
-0.0144742331379
0.000191303052773
-0.0146331873288
0.000158989696614
-0.0147647484163
0.000131597875133
-0.0148729380156
0.000108227394906
-0.0149610382808
8.81396421591e-05
-0.0150317261672
7.07285745865e-05
-0.0150871841011
5.55003897684e-05
-0.015129195755
4.2055626468e-05
-0.0151592233448
3.00734351251e-05
-0.0151784738204
1.92979692192e-05
-0.0151879515161
9.52710838626e-06
-0.0151885033381
6.0296264074e-07
-0.0151808562948
-7.59397497199e-06
-0.0151656479109
-1.51535385529e-05
-0.0151434712511
-2.21199100859e-05
-0.0151149174945
-2.84952028225e-05
-0.0150808683842
-3.39886845852e-05
-0.0150427539328
-3.80521522421e-05
-0.0150032938938
-3.93958699173e-05
-0.0149576828247
-4.55451053747e-05
-0.0148655723899
-9.20429140793e-05
-0.0147393438594
-0.000126159467937
-0.0145851712693
-0.000154102340704
-0.0144154854784
-0.000169614323407
-0.0142358854326
-0.000179527770421
-0.0140501004042
-0.000185711889571
-0.0138604328751
-0.000189594036627
-0.0136684209939
-0.000191937973228
-0.0134751823284
-0.000193164915344
-0.0132816136904
-0.000193494967961
-0.0130885111508
-0.000193029553673
-0.0128966316982
-0.000191807049866
-0.0127067295258
-0.000189830958043
-0.0125195801613
-0.00018707920835
-0.0123360029652
-0.00018350867976
-0.0121568776586
-0.000179058265338
-0.0119831589496
-0.000173653681158
-0.0118158826207
-0.000167213111472
-0.0116561655345
-0.000159656162198
-0.0115051916019
-0.000150915058731
-0.0113641856515
-0.000140949549284
-0.0112343681488
-0.000129763291087
-0.011116894508
-0.000117421982833
-0.0110127751549
-0.000104069926952
-0.0109227837023
-8.99445692683e-05
-0.010847353619
-7.53853838037e-05
-0.0107864742114
-6.08371564415e-05
-0.0107395885791
-4.68454370333e-05
-0.0107055047274
-3.40459382019e-05
-0.010682319021
-2.3149663996e-05
-0.010667360713
-1.49243355779e-05
-0.0106571429277
-1.01854801769e-05
-0.010647341021
-9.7714458739e-06
-0.0106327284311
-1.45835726975e-05
-0.0106072500778
-2.54508376843e-05
-0.0105637724579
-4.34512413642e-05
-0.0104949055772
-6.88413563312e-05
-0.0103914612087
-0.000103419792876
-0.0102490956453
-0.000142340751755
-0.0100526543768
-0.000196418246372
-0.00982003152266
-0.00023259879976
-0.0094338706666
-0.000386138596265
-0.00895402267582
-0.000479829751498
-0.00625540640538
-0.00269855566894
-0.00625538587802
-0.00143263948818
0.00304252824019
-0.0035753522352
0.0035454953768
-0.00548501039292
0.00331200335058
-0.00737393734424
0.00376291293267
-0.00937360035213
0.00336760032929
-0.0106944895661
0.00290715071468
-0.0120681780252
0.00253104298726
-0.0134147830308
0.0022324037381
-0.0147008610485
0.00199437941325
-0.0159150236556
0.00179302198973
-0.0170511410886
0.00161421888057
-0.0181065198381
0.00145230153591
-0.0190814642478
0.00130536197701
-0.0199785030046
0.00117247493586
-0.0208015179145
0.00105268120888
-0.0215550481645
0.000944852832829
-0.0222438336882
0.000847795279102
-0.0228725438538
0.000760328778314
-0.0234456220446
0.000681327065268
-0.0239672014755
0.00060974157367
-0.0244410685165
0.000544619026995
-0.0248706545854
0.000485111159733
-0.0252590473571
0.000430474137529
-0.0256090094462
0.00038006275927
-0.0259230036276
0.000333320514856
-0.0262032166401
0.000289770136505
-0.0264515865209
0.000249004052033
-0.0266698236457
0.000210676129153
-0.0268594440716
0.000174501106882
-0.0270217711304
0.000140243214217
-0.0271579795682
0.000107750561444
-0.0272687970629
7.68680321344e-05
-0.0273547785489
4.79698715727e-05
-0.0274175595648
2.34275070514e-05
-0.0274832953951
2.02342740604e-05
-0.0275940809601
1.8787740089e-05
-0.0276867274247
-3.34671378375e-05
-0.0277452125845
-9.55701866128e-05
-0.0277642483492
-0.000150531020496
-0.0277401416469
-0.000203586153852
-0.0276702097251
-0.000255595221855
-0.027553059329
-0.000306695472601
-0.0273875150134
-0.000357433380568
-0.027172311664
-0.000408319423668
-0.0269061011024
-0.000459657076394
-0.0265874972278
-0.000511585468075
-0.0262151137626
-0.00056414326519
-0.0257876015311
-0.000617296814589
-0.0253036928158
-0.000670942545787
-0.0247622563767
-0.000724900930274
-0.024162364172
-0.000778907513562
-0.0235033730849
-0.000832603231509
-0.0227850227986
-0.000885523266981
-0.0220075525232
-0.000937087868314
-0.0211718343616
-0.000986596165409
-0.0202795207776
-0.00103322769652
-0.0193331971384
-0.00107605305335
-0.0183365288009
-0.0011140580455
-0.0172943861995
-0.00114618180074
-0.0162129308603
-0.0011713707081
-0.0150996432023
-0.00118864532313
-0.0139632765593
-0.00119717748642
-0.0128137264265
-0.00119637062375
-0.0116618124474
-0.00118593621924
-0.0105189807619
-0.00116595886818
-0.00939694313575
-0.00113694055596
-0.00830727815161
-0.00109983012391
-0.00726102020483
-0.00105600995292
-0.00626826872959
-0.0010073165071
-0.00533780821613
-0.000955893467728
-0.00447678935238
-0.000904452770054
-0.00369041017597
-0.000855203575166
-0.00298162831457
-0.000812184643265
-0.00235091721324
-0.000773035402872
-0.00179483763843
-0.000752480563757
-0.00130922239094
-0.00071819924202
-0.000863720824064
-0.000831624067394
-0.000460430039936
-0.000883100340067
0.000306461659383
-0.00346543483815
-0.00594890397303
-0.00508792688346
0.00813048505218
-0.00623700654304
0.00469462110394
-0.00647119258398
0.00354621667287
-0.0064706171277
0.0037623579974
-0.00670886923505
0.00360586825406
-0.00719066236188
0.00338895693737
-0.0078817249298
0.00322211659047
-0.00868086551258
0.00303155479146
-0.00949364100727
0.00280716488266
-0.0102679227476
0.00256731352853
-0.01098029837
0.00232660380416
-0.0116217694922
0.00209378153003
-0.0121908209751
0.00187442179363
-0.0126900320935
0.00167169390994
-0.0131240431885
0.00148669976449
-0.0134982953028
0.00131911203297
-0.0138183124959
0.00116781937721
-0.0140893324765
0.00103135544205
-0.0143161359508
0.00090813726056
-0.0145029848073
0.000796597087436
-0.0146536179361
0.000695259050935
-0.0147712788009
0.000602779002862
-0.0148587575657
0.000517960293135
-0.0149184402407
0.00043975303754
-0.014952357971
0.000367246409331
-0.014962235245
0.000299655897997
-0.0149495345388
0.00023631251981
-0.0149154957897
0.000176646971428
-0.0148611769699
0.000120192662843
-0.0147874749625
6.6552060979e-05
-0.0146952203956
1.55076839819e-05
-0.0145851067941
-3.32333596468e-05
-0.0144575884919
-7.953536738e-05
-0.0143067716419
-0.000127375748145
-0.0140993387611
-0.000187184421383
-0.0138801100513
-0.000200426607303
-0.0136829020761
-0.000230660439989
-0.0135090726497
-0.000269384927468
-0.0133563469436
-0.000303241907222
-0.0132258939293
-0.000334024441734
-0.0131178989707
-0.000363575515752
-0.0130323203815
-0.000392259607259
-0.0129693974399
-0.000420342122946
-0.012929430467
-0.000448272508109
-0.0129125249326
-0.000476549142629
-0.0129184376637
-0.000505659649744
-0.0129464740593
-0.000536094323756
-0.012995398471
-0.000568360272946
-0.013063350354
-0.000602979145023
-0.0131477659568
-0.000640474226229
-0.0132453090178
-0.000681353985466
-0.0133518114503
-0.000726090721469
-0.0134622302819
-0.000775094972424
-0.013570625898
-0.00082868313365
-0.0136701728341
-0.000887040676056
-0.0137532121227
-0.000950180145357
-0.0138113588376
-0.00101789857475
-0.0138356730746
-0.00108973628096
-0.0138169029707
-0.00116494480167
-0.0137457978538
-0.00124246890391
-0.0136134844769
-0.00132095212371
-0.0134118851303
-0.0013987703765
-0.0131341496079
-0.00147409994145
-0.0127750621054
-0.001545017554
-0.0123313837772
-0.00160963117133
-0.0118020922298
-0.00166622601826
-0.0111884908764
-0.00171342541888
-0.0104941786985
-0.00175031591314
-0.00972486286187
-0.00177662601339
-0.00888806518001
-0.001792684468
-0.00799262143051
-0.00179988948719
-0.00704813075088
-0.00179968651836
-0.00606350103358
-0.00179680630229
-0.00504643537754
-0.00179009175214
-0.00399915950108
-0.0017997478531
-0.00292940051842
-0.00178794826858
-0.00183774082962
-0.00192327574146
-0.000847442371301
-0.00187339557276
4.94992252174e-05
-0.00436235370892
-0.00589940706402
-0.00653733273537
0.0146678954718
-0.00475849769618
0.00291581798217
-0.00415934153509
0.00294707871441
-0.00445243772949
0.00405546803004
-0.00523362230385
0.00438706361058
-0.00626496370936
0.00442030625415
-0.00735793194944
0.00431509099673
-0.00841193122108
0.00408555908132
-0.0093840090657
0.0037792470654
-0.0102632161709
0.00344652426735
-0.0110534203662
0.0031168108856
-0.0117638623604
0.00280422557057
-0.0124048269645
0.00251538748428
-0.0129858909064
0.00225275801531
-0.0135153299488
0.00201613792659
-0.0140000244456
0.00180380475448
-0.0144455713287
0.00161336345909
-0.0148564715678
0.00144225207758
-0.0152363326463
0.00128799378342
-0.0155880537122
0.00114831291706
-0.0159139830754
0.00102118232702
-0.0162160451162
0.000904834407309
-0.0164958421236
0.000797749924996
-0.0167547336682
0.000698636787136
-0.0169938993597
0.000606403678525
-0.0172143874095
0.000520135228089
-0.0174171502478
0.000439066117021
-0.0176030767587
0.000362564049574
-0.0177729920622
0.000290098096421
-0.0179277008007
0.000221250799299
-0.0180678005032
0.000155596991161
-0.0181939793263
9.29349834785e-05
-0.0183062436839
3.27181661871e-05
-0.0184109249369
-2.27055765683e-05
-0.0185176870871
-8.04338505321e-05
-0.0185646636432
-0.00015346201053
-0.0185705627019
-0.000224773899201
-0.0185384356513
-0.000301524924079
-0.0184639036465
-0.000377787372024
-0.0183469031828
-0.000451038813174
-0.0181886739956
-0.000521819052565
-0.0179903572027
-0.000590591184325
-0.0177532829091
-0.000657431529599
-0.0174791837402
-0.000722387162847
-0.01717019971
-0.000785548831582
-0.0168288714747
-0.000847003805574
-0.0164581617598
-0.000906819943039
-0.0160614779244
-0.000965060124293
-0.0156426745106
-0.00102179835214
-0.0152060323602
-0.00107713210828
-0.0147562094686
-0.00113119218265
-0.0142981614501
-0.00118415380761
-0.0138370238136
-0.00123624707
-0.0133779535917
-0.00128776741986
-0.0129259250254
-0.00133908255869
-0.0124854828712
-0.0013906350929
-0.0120604578316
-0.00144293556721
-0.0116536613248
-0.00149654413151
-0.0112665804321
-0.00155203615239
-0.0108991063984
-0.00160995273747
-0.0105493305705
-0.0016707368531
-0.0102134461142
-0.00173466304428
-0.00988578379896
-0.00180176956083
-0.00955900155539
-0.0018718063713
-0.00922442637717
-0.00194421198766
-0.00887253347827
-0.00201812376744
-0.00849352556096
-0.0020924372081
-0.0080779784978
-0.00216586599042
-0.00761749945897
-0.00223710701528
-0.00710539889701
-0.00230478600368
-0.0065372602482
-0.00236802786048
-0.00591158470749
-0.00242536072778
-0.00522956008159
-0.00247882814532
-0.00449584897547
-0.00252379968353
-0.00371414937401
-0.00258144265491
-0.00289692869316
-0.00260516542529
-0.0020407101698
-0.00277949011189
-0.00123316542619
-0.00268093114154
-0.000329370065838
-0.00526615584886
-0.00622877260997
-0.00152339937675
0.0161912994045
-0.00103277159066
0.00242520225173
-0.00234695939819
0.00426127823369
-0.0038568085168
0.00556532705672
-0.00524964523354
0.00577990819087
-0.00650798827879
0.00567865534699
-0.00759414043816
0.00540124768882
-0.00851122897605
0.00500265111541
-0.00928919591076
0.00455721665489
-0.00995826099872
0.00411559128286
-0.010542289125
0.00370084016932
-0.0110594158791
0.00332135262275
-0.0115229378595
0.00297890885288
-0.0119421628799
0.00267198138171
-0.0123234049105
0.00239737728155
-0.012670894042
0.0021512900536
-0.0129874595433
0.00192992406334
-0.0132750058212
0.00172979225916
-0.0135348392341
0.0015478200481
-0.0137678899158
0.00138135526133
-0.0139748564353
0.00122813950569
-0.01415629701
0.00108626449491
-0.0143126839536
0.000954125446895
-0.014444435606
0.000830375932877
-0.0145519332518
0.000713887960786
-0.0146355294276
0.000603717024246
-0.0146955508554
0.000499072383021
-0.014732295129
0.00039929220658
-0.0147460307916
0.000303816906602
-0.0147369746618
0.00021217689131
-0.0147053224705
0.000123926306154
-0.0146510783089
3.8671432988e-05
-0.0145738839187
-4.44963355551e-05
-0.014469862105
-0.000126748430557
-0.014353582273
-0.000196735624711
-0.0142447295772
-0.000262337488693
-0.0141422948616
-0.00032723212842
-0.0140516919379
-0.000392152097238
-0.0139721476372
-0.00045735656703
-0.0139014682348
-0.000521743678004
-0.0138379375409
-0.000585375719712
-0.0137797119493
-0.000648843104849
-0.0137245641731
-0.000712605961159
-0.0136699590434
-0.00077701905066
-0.0136131023068
-0.000842432425763
-0.0135509517505
-0.000909181044158
-0.0134802514839
-0.000977546738556
-0.0133976005004
-0.00104773717804
-0.0132995490586
-0.00111987545304
-0.0131827169779
-0.00119398912171
-0.0130439333432
-0.00127000009673
-0.0128803924483
-0.00134771802379
-0.0126898201899
-0.00142684179014
-0.0124706382896
-0.00150697064472
-0.0122221125393
-0.00158762861858
-0.0119444642136
-0.00166830247519
-0.0116389238143
-0.00174849391243
-0.0113077031026
-0.00182778148719
-0.010953867786
-0.00190588696657
-0.0105810995873
-0.00198273514161
-0.0101933523368
-0.00205849717172
-0.00979442206341
-0.00213360513688
-0.00938747063837
-0.00220873169249
-0.0089745551092
-0.00228473139986
-0.00855622421445
-0.00236255128571
-0.00813124112721
-0.00244311408202
-0.00769647780718
-0.00252720667425
-0.00724702653299
-0.00261532226646
-0.00677653500136
-0.00270760246988
-0.00627781775039
-0.00280350598549
-0.00574371430835
-0.00290213290703
-0.00516851397725
-0.00300056138389
-0.004549200239
-0.0030981414275
-0.0038884519713
-0.00318454620381
-0.00319258561181
-0.00327730763051
-0.00248126783111
-0.00331648044413
-0.00175367197305
-0.00350708428966
-0.00108565261811
-0.00334895505184
-0.00025870216287
-0.00609309915589
-0.00648748030233
5.69120442549e-05
0.016134423818
-0.000469054332882
0.0029511823315
-0.00266879009539
0.00646102269433
-0.00446387752373
0.00736042163082
-0.0058494478144
0.00716548440374
-0.00694972213981
0.00677893441263
-0.00781375630442
0.00626528562879
-0.00850264826375
0.00569154604849
-0.00907589307157
0.00513046380542
-0.00957478877598
0.00461448872221
-0.0100249600117
0.00415101251346
-0.0104421098247
0.00373850285525
-0.0108354845472
0.00337228319573
-0.01121001371
0.00304650931236
-0.0115679172345
0.00275527858791
-0.0119098609112
0.00249323051993
-0.0122356960238
0.00225575484238
-0.012544900737
0.00203899156018
-0.0128368370525
0.00183974974866
-0.0131108946908
0.00165540516814
-0.0133665652353
0.00148380108303
-0.0136034733438
0.00132316251654
-0.0138213846962
0.00117202547555
-0.014020201781
0.00102918059353
-0.0141999557024
0.000893628239757
-0.0143607964036
0.000764543011386
-0.0145029852204
0.000641245292108
-0.0146268858524
0.000523175877799
-0.0147329651448
0.000409878053836
-0.0148217724068
0.000300964950169
-0.0148939998477
0.000196133368175
-0.0149504100239
9.5060221319e-05
-0.0149926809353
-2.2479829258e-06
-0.0150231998466
-9.62532202416e-05
-0.0150260464524
-0.000193913794657
-0.014997807471
-0.000290602103247
-0.0149391349193
-0.000385931122416
-0.0148508665337
-0.000480447634824
-0.0147347328795
-0.000573517964483
-0.0145922963955
-0.000664208414294
-0.0144256068855
-0.000752093815126
-0.014237206216
-0.000837272625531
-0.0140298562691
-0.000919984802922
-0.0138064104998
-0.00100049370625
-0.013569738809
-0.00107913274356
-0.0133226232451
-0.00115632494102
-0.0130676364387
-0.00123256132159
-0.0128070260153
-0.00130837480726
-0.0125426110328
-0.00138431681211
-0.0122756952134
-0.00146093049561
-0.0120070028806
-0.00153871692144
-0.0117366473509
-0.00161809701312
-0.0114641390524
-0.00169937230493
-0.0111884410933
-0.00178268963119
-0.0109080750626
-0.00186801431487
-0.0106212770512
-0.00195511886851
-0.0103261949006
-0.00204359303351
-0.0100211107963
-0.00213288125068
-0.00970466142027
-0.00222235061007
-0.00937602204995
-0.00231138750092
-0.00903501511746
-0.00239951577281
-0.00868210917454
-0.00248652153974
-0.00831828452756
-0.00257256556896
-0.00794476236184
-0.00265826166372
-0.00756261865786
-0.00274470194238
-0.00717233172639
-0.0028334069055
-0.00677331762686
-0.00292622563011
-0.00636356235728
-0.00302508139543
-0.00593939069159
-0.00313177708714
-0.0054955020926
-0.00324739656946
-0.00502532622611
-0.00337230987
-0.00452209386987
-0.00350379400484
-0.00398002436058
-0.00364021044203
-0.00339779732832
-0.00376677274043
-0.00277774248709
-0.00389736128103
-0.00213812198013
-0.00395610072382
-0.00148030299202
-0.00416490291031
-0.000900517557635
-0.00392873700633
-0.00015686856214
-0.0068367580028
-0.00664434989738
0.000377298155476
0.015757111647
-0.00100934144203
0.00433782182825
-0.00350270221874
0.00895438712772
-0.00511363981567
0.00897136352895
-0.00622758414216
0.00827943296846
-0.00704118466066
0.0075925388288
-0.00764339235528
0.00686749673504
-0.00811911545281
0.0061672721134
-0.00852946674242
0.0055408176036
-0.00890866834184
0.00499369241409
-0.00927412558046
0.00451647138475
-0.00963389234511
0.00409827075358
-0.00999058070948
0.00372897211931
-0.0103436802838
0.00339960877948
-0.0106910858781
0.00310268334235
-0.0110300513704
0.00283219433485
-0.0113577303789
0.00258343130414
-0.0116714566757
0.00235271434202
-0.011968873551
0.00213716214633
-0.0122479781899
0.00193450427721
-0.0125071187882
0.00174293513517
-0.0127449678299
0.00156100391374
-0.0129604851993
0.00138753416015
-0.0131528798508
0.00122156544312
-0.0133215737339
0.00106231127607
-0.0134661704361
0.000909127746973
-0.0135864278947
0.000761489737386
-0.0136822374224
0.000618971266557
-0.0137536026681
0.000481228096451
-0.0138006378915
0.000347983834568
-0.0138235265583
0.000219004646348
-0.0138225946882
9.41098495645e-05
-0.0137979488506
-2.69133538406e-05
-0.0137504473049
-0.00014377540976
-0.0136902399563
-0.000254142692778
-0.0136200406358
-0.000360823695371
-0.0135411401265
-0.000464854537961
-0.0134547256684
-0.000566885512025
-0.0133609267899
-0.00066734068923
-0.0132589902255
-0.000766169093769
-0.013147771666
-0.000863336678375
-0.0130260446646
-0.000959023934933
-0.0128925623674
-0.00105349133886
-0.0127461102312
-0.00114696981552
-0.0125856010931
-0.0012396655255
-0.012410161919
-0.00133178723507
-0.0122191930057
-0.00142355277977
-0.0120124035946
-0.0015151860058
-0.0117898258588
-0.00160691554083
-0.0115518035947
-0.00169897279592
-0.0112989545227
-0.00179158505227
-0.0110321077389
-0.00188496174399
-0.0107522220864
-0.00197927479044
-0.0104602933021
-0.00207463403418
-0.0101572618172
-0.00217106022279
-0.00984393481438
-0.00226845903752
-0.00952093801269
-0.00236660178677
-0.00918871085453
-0.0024651191269
-0.00884755146425
-0.00256351954827
-0.00849770906169
-0.00266123829513
-0.00813950573748
-0.00275772640832
-0.00777345712828
-0.00285257640902
-0.00740035113607
-0.00294567684173
-0.00702124021212
-0.00303737691957
-0.00663731490386
-0.00312863067881
-0.00624965423537
-0.00322107018728
-0.00585884304752
-0.0033170385915
-0.00546457336058
-0.0034193522642
-0.0050652371517
-0.00353111371714
-0.00465768070851
-0.00365495298087
-0.00423715346708
-0.00379283642513
-0.00379792928536
-0.00394301722308
-0.00333398978445
-0.00410414879628
-0.00284191799593
-0.00425884345219
-0.00232004965313
-0.00441922932425
-0.00178198300941
-0.00449416684865
-0.00122575456589
-0.00472113121602
-0.000762148731923
-0.0043923484346
-0.000110755030503
-0.00748815219221
-0.00675510954087
0.000370256715086
0.0153868652358
-0.00161764022215
0.00632572127413
-0.00406824231936
0.0114049908025
-0.00534172042608
0.0102448439743
-0.00616509905569
0.00910281444527
-0.00673770480289
0.00816514763171
-0.00715974172515
0.00728953673818
-0.00751544016389
0.00652297346779
-0.00785215856702
0.00587753872718
-0.0081908561887
0.00533239248369
-0.00853937956976
0.00486499693969
-0.00889887709393
0.00445777010803
-0.00926689643198
0.00409699290089
-0.00963927981559
0.00377199313692
-0.0100113258338
0.00347472979144
-0.0103784298741
0.00319929819087
-0.0107364013773
0.00294140193157
-0.0110815963182
0.0026979076704
-0.0114109467034
0.00246651011442
-0.0117219351522
0.00224548948657
-0.0120125435921
0.00203353945551
-0.0122811929627
0.00182964828867
-0.0125266837569
0.00163301903364
-0.0127481421722
0.00144301703236
-0.0129449743649
0.00125913569582
-0.0131168286801
0.00108097336831
-0.013263566688
0.000908218091841
-0.0133852394533
0.000740633438764
-0.0134820761531
0.000578053228966
-0.0135544656116
0.000420360776104
-0.0136029846371
0.000267510204633
-0.0136283353918
0.000119446262022
-0.0136314897696
-2.37742671915e-05
-0.0136125540854
-0.00016272727033
-0.013568061876
-0.000298651707846
-0.0134985660215
-0.000430336862578
-0.0134050543779
-0.00055838388288
-0.0132890462243
-0.00068291167985
-0.0131524721127
-0.000803932989671
-0.0129972662628
-0.000921393233334
-0.0128253312909
-0.00103528989166
-0.0126385696523
-0.0011458036951
-0.0124388022954
-0.00125327654795
-0.0122276520975
-0.00135813753009
-0.0120064650486
-0.00146086961514
-0.0117762682933
-0.00156200049646
-0.0115377522645
-0.00166208465558
-0.0112912782377
-0.00176167516951
-0.011036913736
-0.00186129436535
-0.0107744927646
-0.00196140723379
-0.0105036931034
-0.00206239724437
-0.0102241213914
-0.00216454502165
-0.00993539552833
-0.00226801120318
-0.00963721390526
-0.00237282517817
-0.00932940270577
-0.00247887989619
-0.00901193620821
-0.00258593297186
-0.00868493072469
-0.00269361368609
-0.00834862307668
-0.00280143220609
-0.00800334368088
-0.00290880343264
-0.0076495055645
-0.00301508001394
-0.00728761840061
-0.00311961633974
-0.00691833373651
-0.00322186304787
-0.00654250917118
-0.00332150267414
-0.00616125744357
-0.00341862916763
-0.00577593800187
-0.00351395006166
-0.00538807458724
-0.00360893284616
-0.00499909158514
-0.00370602039933
-0.00461004732996
-0.00380839479968
-0.00422121582935
-0.00391994326319
-0.00383184931199
-0.00404431723397
-0.00343992501153
-0.00418475832746
-0.00304257665915
-0.00434036309281
-0.00263663409953
-0.00451008928179
-0.00222065147062
-0.0046748247544
-0.001793449316
-0.00484643109911
-0.00136711684699
-0.00492049962581
-0.000934804714452
-0.00515344458594
-0.000611500915824
-0.00471565198847
-6.78457625426e-05
-0.00803181532253
-0.00682295946776
0.000277571220731
0.0151092765498
-0.0021859342443
0.00878922026321
-0.00436220914322
0.013581263974
-0.00524832733505
0.0111309624223
-0.00582915510633
0.00968364377738
-0.00623526286654
0.00857125772174
-0.0065573100745
0.00761158659892
-0.0068632749381
0.00682894107441
-0.00718185337013
0.00619611978958
-0.00752182671181
0.00567236830441
-0.00788374023035
0.00522691271134
-0.00826401160979
0.00483804350826
-0.00865702547774
0.00449000848785
-0.00905652272939
0.00417149176717
-0.00945639932916
0.00387460735081
-0.00985109310625
0.00359399245329
-0.0102357407327
0.00332604950275
-0.010606211397
0.00306837768725
-0.0109590734935
0.00281937092657
-0.0112915281485
0.0025779421789
-0.0116013308521
0.00234333949342
-0.0118867135906
0.0021150276273
-0.0121463137811
0.00189261508092
-0.0123791128039
0.0016758111481
-0.0125843846885
0.0014644019099
-0.0127616544548
0.00125823668797
-0.0129106651986
0.00105722161311
-0.0130313520682
0.000861312301633
-0.0131238244386
0.000670516806331
-0.0131883474912
0.000484874266579
-0.0132253412923
0.000304493705767
-0.0132353393087
0.000129433265551
-0.0132191544401
-3.99708395543e-05
-0.013178385534
-0.000203508511158
-0.013115826918
-0.000361223034368
-0.0130322211776
-0.000513955567277
-0.0129287012279
-0.000661916990146
-0.0128061793629
-0.000805446776418
-0.0126654011134
-0.000944724485511
-0.0125069935645
-0.00107981392324
-0.0123315372091
-0.00121075922499
-0.0121396768941
-0.00133767670913
-0.0119321822612
-0.00146078354606
-0.0117099497204
-0.00158038199735
-0.0114739807256
-0.00169685004652
-0.0112253470657
-0.00181064501344
-0.0109651403631
-0.00192230158823
-0.0106944097732
-0.00203241529088
-0.0104140990902
-0.00214161383766
-0.0101249945281
-0.00225051979247
-0.0098276921724
-0.00235970676859
-0.00952259113088
-0.00246965237767
-0.00920991471975
-0.00258069305292
-0.00888975600388
-0.00269298845811
-0.00856213992975
-0.00280649965948
-0.00822708955341
-0.00292098619028
-0.00788468082383
-0.00303602443979
-0.00753508537416
-0.00315102891017
-0.00717858347698
-0.00326530586219
-0.00681556688371
-0.00337809647356
-0.00644653091533
-0.0034886515203
-0.00607208080088
-0.003596311845
-0.00569296396712
-0.00370061754501
-0.00531012046505
-0.00380147026672
-0.00492471472508
-0.0038993527625
-0.0045381873513
-0.00399545675736
-0.00415205969571
-0.00409214419253
-0.00376789221671
-0.0041925582088
-0.00338692752806
-0.00430090385307
-0.00301018939377
-0.00442105109788
-0.00263793762304
-0.00455700607693
-0.00227040596093
-0.00470789113631
-0.0019087101671
-0.0048717822883
-0.00155610434049
-0.00502742935887
-0.00121511055885
-0.00518742477163
-0.000897432438582
-0.00523817917166
-0.000599491475384
-0.00545138621235
-0.00041797978548
-0.00489716887019
1.2009388449e-05
-0.00846181091672
-0.00681095343215
0.000144468069103
0.0149648087113
-0.00262060255344
0.0115542877266
-0.00437515952973
0.0153358180777
-0.00491978634251
0.0116755882585
-0.00534451685077
0.0101083747948
-0.00566024042886
0.00888698285943
-0.00594516890295
0.00789651725693
-0.00624676482022
0.00713053938526
-0.00657803031818
0.00652738770552
-0.00693981627492
0.0060341565416
-0.00732829667224
0.00561539523596
-0.00773716509845
0.0052469138425
-0.00815912571236
0.0049119707889
-0.00858691782815
0.00459928527894
-0.00901385176163
0.00430154236331
-0.00943403110238
0.00401417248175
-0.00984241074239
0.00373442940695
-0.0102347697233
0.00346073644716
-0.0106076401619
0.0031922406337
-0.0109582180148
0.00292851874522
-0.0112842715644
0.00266939118584
-0.0115840566524
0.00241481025789
-0.0118562425211
0.00216479788759
-0.0120998495371
0.0019194144791
-0.0123141981746
0.00167874624643
-0.0124988683501
0.00144290193356
-0.0126536673539
0.00121201507258
-0.0127786051849
0.00098624395952
-0.0128738767093
0.00076578155727
-0.0129398474223
0.000550837604841
-0.0129770552288
0.000341693607207
-0.0129862044629
0.000138574084976
-0.0129681878835
-5.79963240328e-05
-0.0129230201114
-0.000248685576401
-0.0128510181541
-0.000433234413989
-0.0127532335029
-0.000611749725643
-0.0126308868878
-0.000784273095368
-0.0124854937594
-0.000950849332072
-0.012318684065
-0.00111154344808
-0.0121320872146
-0.00126641983854
-0.0119272751647
-0.00141558004828
-0.0117057480844
-0.00155921222757
-0.0114689278336
-0.00169761182246
-0.0112181444395
-0.00183117296156
-0.0109546261242
-0.00196037541304
-0.0106794988621
-0.00208577876517
-0.0103937895613
-0.00220801676897
-0.0100984262882
-0.00232778379234
-0.00979423337306
-0.00244581129958
-0.00948192260122
-0.00256283439254
-0.00916208354856
-0.00267954892271
-0.00883517782595
-0.00279656044965
-0.0085015442523
-0.00291432823828
-0.00816141693076
-0.00303311664891
-0.00781495988036
-0.0031529568698
-0.00746231480473
-0.00327363074183
-0.00710364423362
-0.00339469385038
-0.00673919166084
-0.00351547971626
-0.00636930467069
-0.00363519056193
-0.00599445925465
-0.00375293902683
-0.00561524743965
-0.00386786004187
-0.00523236785825
-0.00397918757779
-0.00484662727012
-0.00408635382455
-0.0044589670281
-0.0041891257164
-0.00407046125806
-0.00428785319939
-0.00368251822833
-0.00438339403415
-0.00329661059549
-0.00447804577842
-0.00291444525781
-0.00457471767368
-0.00253762094347
-0.00467772246412
-0.00216884400193
-0.00478982291224
-0.00180995877281
-0.00491588663714
-0.00146449658035
-0.00505334948355
-0.00113950242375
-0.00519677410548
-0.000843431563994
-0.00532349897487
-0.000587230548901
-0.00544362721114
-0.000370962450944
-0.00545444824348
-0.000244143215255
-0.00557820850144
-0.00016603920069
-0.00497527611497
0.000204296477134
-0.00883215202225
-0.00660666374092
8.13522949449e-06
0.0149566572719
-0.00290691360557
0.0144693276578
-0.00417903616395
0.0166079360441
-0.00447866934674
0.0119752191023
-0.00482659626079
0.0104563013014
-0.00510259060705
0.00916297812057
-0.00538445821875
0.00817838651504
-0.0057008385717
0.00744692171379
-0.00605458113288
0.00688113224143
-0.00644231653472
0.00642189381965
-0.00685769661796
0.00603077699962
-0.00729281214294
0.00568203086953
-0.00773946181027
0.00535862172521
-0.00818992682807
0.00504975133723
-0.00863732311489
0.0047489393933
-0.00907571281694
0.00445256261525
-0.00950009391458
0.00415881055619
-0.00990632902516
0.00386697121533
-0.0102910475166
0.00357695833358
-0.0106515412564
0.00328901123827
-0.0109856658879
0.00300351407408
-0.011291753355
0.00272089548894
-0.0115685376492
0.00244157942394
-0.0118150935013
0.00216596706659
-0.0120307866049
0.00189443555895
-0.0122152341237
0.00162734516042
-0.0123682728364
0.0013650489756
-0.0124899351032
0.00110790093283
-0.0125804286668
0.000856269332911
-0.0126401205374
0.000610523259329
-0.0126695250552
0.000371091489163
-0.0126692620033
0.000138304058758
-0.0126401141868
-8.71514451229e-05
-0.0125832050037
-0.000305602233431