/*--------------------------------*- C++ -*----------------------------------*\
| =========                 |                                                 |
| \\      /  F ield         | OpenFOAM: The Open Source CFD Toolbox           |
|  \\    /   O peration     | Version:  v1806                                 |
|   \\  /    A nd           | Web:      www.OpenFOAM.com                      |
|    \\/     M anipulation  |                                                 |
\*---------------------------------------------------------------------------*/
FoamFile
{
    version     2.0;
    format      ascii;
    class       volVectorField;
    location    "1000";
    object      U;
}
// * * * * * * * * * * * * * * * * * * * * * * * * * * * * * * * * * * * * * //

dimensions      [0 1 -1 0 0 0 0];


internalField   nonuniform List<vector> 
6400
(
(0.00912057779203 0.0192182281447 0)
(0.02290091695 0.0129335145544 0)
(0.0297220934224 0.00985637382818 0)
(0.0281345997565 0.00777871347569 0)
(0.0228617988595 -0.00024801442018 0)
(-0.00991410946337 -0.0153937319415 0)
(-0.0365031542377 -0.0158704025042 0)
(-0.0609048689531 -0.0150270036395 0)
(-0.085937061614 -0.0144613247184 0)
(-0.110467338087 -0.0138601935836 0)
(-0.134225790094 -0.013181162788 0)
(-0.156981858474 -0.0124438748243 0)
(-0.178577921463 -0.0116745054658 0)
(-0.198916565262 -0.0108962962728 0)
(-0.217949386643 -0.0101274946769 0)
(-0.235665987664 -0.00938138581053 0)
(-0.252084130557 -0.00866692711929 0)
(-0.267241355788 -0.00798954151929 0)
(-0.281188141633 -0.00735190097706 0)
(-0.293982532963 -0.0067546297408 0)
(-0.305686081194 -0.00619689907905 0)
(-0.316360896931 -0.00567690782428 0)
(-0.326067608249 -0.00519225546306 0)
(-0.33486402953 -0.00474022094717 0)
(-0.342804369069 -0.00431796280527 0)
(-0.349938831596 -0.0039226560158 0)
(-0.356313499938 -0.00355157940718 0)
(-0.361970404446 -0.00320216482034 0)
(-0.366947707986 -0.00287201613105 0)
(-0.371279949934 -0.00255890335024 0)
(-0.37499831461 -0.00226073695782 0)
(-0.378130916591 -0.00197552842751 0)
(-0.380703071222 -0.00170131579177 0)
(-0.382737382435 -0.0014359513839 0)
(-0.384253367375 -0.00117667510517 0)
(-0.385266652617 -0.000919876615001 0)
(-0.385788942376 -0.000661947355327 0)
(-0.385832261174 -0.00040146934777 0)
(-0.385402672543 -0.000140428158751 0)
(-0.384503674245 0.000116619061791 0)
(-0.383150026606 0.000367000533293 0)
(-0.381354552025 0.000610636797983 0)
(-0.379129351035 0.000848183073663 0)
(-0.376485066034 0.00108054108615 0)
(-0.373430715459 0.00130868385875 0)
(-0.369973650934 0.00153359327008 0)
(-0.366119570517 0.00175623261439 0)
(-0.361872566217 0.00197752753834 0)
(-0.357235205927 0.00219834609956 0)
(-0.352208657004 0.00241947516758 0)
(-0.346792860082 0.00264159325278 0)
(-0.340986759892 0.00286524133303 0)
(-0.334788595917 0.00309079438805 0)
(-0.32819625008 0.00331843715328 0)
(-0.321207641551 0.00354814833166 0)
(-0.313821150691 0.00377969788024 0)
(-0.306036045544 0.00401266219078 0)
(-0.297852875991 0.00424646168629 0)
(-0.289273793448 0.00448042483881 0)
(-0.280302748008 0.00471388186993 0)
(-0.270945510631 0.00494629067584 0)
(-0.261209465701 0.00517739634884 0)
(-0.251103119419 0.00540742468351 0)
(-0.240635272043 0.0056373089305 0)
(-0.229813806507 0.00586894765825 0)
(-0.218644050898 0.00610549124058 0)
(-0.207126681552 0.00635165322691 0)
(-0.195255157212 0.00661403487047 0)
(-0.183012696861 0.00690143854949 0)
(-0.170368791889 0.00722513683879 0)
(-0.157275251285 0.00759900998796 0)
(-0.143662185416 0.00803942975326 0)
(-0.129435616712 0.00856450966071 0)
(-0.114478873811 0.00919135250255 0)
(-0.0986531850147 0.00992917309707 0)
(-0.0817838511438 0.0107698581583 0)
(-0.0636735594447 0.011682796443 0)
(-0.0444089561 0.0125748676351 0)
(-0.0253540620058 0.012952558797 0)
(-0.0100168484809 0.0105846787571 0)
(0.000176863563736 0.0284319668679 0)
(0.0120570172401 0.0155117975237 0)
(0.00681700794954 -0.00182239105693 0)
(-0.0220773305402 -0.0218264684686 0)
(-0.0407259094162 -0.0301812039892 0)
(-0.063635427285 -0.0358053106682 0)
(-0.0873868552485 -0.0372181544674 0)
(-0.111993726033 -0.0373107601552 0)
(-0.136918463697 -0.0368605352122 0)
(-0.161308390375 -0.0359177454745 0)
(-0.184807823284 -0.034579913482 0)
(-0.207170177148 -0.0329528776978 0)
(-0.228242648245 -0.0311333088802 0)
(-0.247939450794 -0.0292029059852 0)
(-0.266226165241 -0.0272270426472 0)
(-0.283106600968 -0.0252556065261 0)
(-0.298611868012 -0.0233248218853 0)
(-0.312791453985 -0.0214594570477 0)
(-0.325706169009 -0.0196750739377 0)
(-0.337422762203 -0.0179801204835 0)
(-0.348009969237 -0.016377759891 0)
(-0.357535735185 -0.014867394998 0)
(-0.366065366732 -0.0134458885324 0)
(-0.373660393907 -0.0121085056232 0)
(-0.38037795554 -0.0108496174663 0)
(-0.386270558043 -0.00966320859215 0)
(-0.391386090363 -0.00854322786516 0)
(-0.395768006062 -0.0074838175591 0)
(-0.399455604366 -0.00647944792508 0)
(-0.402484355924 -0.00552497931142 0)
(-0.404886237193 -0.00461567395046 0)
(-0.406690089493 -0.0037471725372 0)
(-0.407922074388 -0.00291537511771 0)
(-0.40860611922 -0.00211599921311 0)
(-0.408763606482 -0.00134384477377 0)
(-0.408411403725 -0.000593504454375 0)
(-0.407559534071 0.000136371103713 0)
(-0.406245133478 0.000843598407866 0)
(-0.404495613153 0.00152924797345 0)
(-0.402338084585 0.00219459916046 0)
(-0.399784797081 0.00284014053522 0)
(-0.396846166269 0.00346759896135 0)
(-0.393530337711 0.00407910625219 0)
(-0.389844028282 0.00467694827404 0)
(-0.385792701657 0.00526345568518 0)
(-0.381380604471 0.00584095249022 0)
(-0.376610765015 0.00641171867134 0)
(-0.371484998567 0.00697794836015 0)
(-0.366003940731 0.00754169600244 0)
(-0.360167123058 0.0081048086679 0)
(-0.353973101882 0.0086688462505 0)
(-0.347419648241 0.00923499414491 0)
(-0.340504002651 0.00980397548918 0)
(-0.333223193016 0.010375972283 0)
(-0.325574407078 0.0109505664657 0)
(-0.317555402865 0.0115267131983 0)
(-0.309164932064 0.0121027589004 0)
(-0.300403142907 0.0126765158077 0)
(-0.291271922164 0.013245402883 0)
(-0.281775130403 0.0138066606852 0)
(-0.271918680654 0.0143576456499 0)
(-0.261710409131 0.01489620568 0)
(-0.251159687974 0.0154211355847 0)
(-0.240276733675 0.0159327084539 0)
(-0.229071572399 0.0164332735446 0)
(-0.217552631519 0.0169279111928 0)
(-0.205724933957 0.017425133035 0)
(-0.193587893143 0.0179376005187 0)
(-0.181132741757 0.0184827848172 0)
(-0.168339586181 0.0190835313526 0)
(-0.155174105688 0.0197683098819 0)
(-0.141584220479 0.0205708457681 0)
(-0.127497654588 0.0215284385719 0)
(-0.112821658145 0.0226762587222 0)
(-0.097443657154 0.0240330063485 0)
(-0.0812271711513 0.0255785392396 0)
(-0.06401571468 0.0272307634539 0)
(-0.0457629061896 0.0287558335523 0)
(-0.0271574586682 0.029258371885 0)
(-0.0110345389106 0.0258064990976 0)
(-0.00748534859871 0.0267941895224 0)
(-0.0155092758729 -0.00519058734456 0)
(-0.0349349378898 -0.0264607388903 -8.10230291084e-29)
(-0.0551294266738 -0.0409956422204 5.11575747739e-29)
(-0.0757052748394 -0.0514047556603 3.89533802487e-29)
(-0.0971536071467 -0.0584092806568 -3.19096116737e-29)
(-0.11912912911 -0.0612945041396 2.73278354918e-29)
(-0.141650295415 -0.0618927211883 -2.43113513307e-29)
(-0.164086021192 -0.0611412528997 0)
(-0.185866545757 -0.0594123213125 0)
(-0.206666852141 -0.0569841567413 0)
(-0.226281683779 -0.0540777754618 0)
(-0.244601757883 -0.0508725309672 0)
(-0.261583162983 -0.0475111501053 0)
(-0.277227972435 -0.0441035524868 0)
(-0.291569425424 -0.0407310050966 0)
(-0.304660667738 -0.0374506177878 0)
(-0.31656628308 -0.0342998736493 0)
(-0.327356115001 -0.0313008904679 0)
(-0.33710094012 -0.0284642037023 0)
(-0.345869591275 -0.0257919650137 0)
(-0.353727174807 -0.0232805355037 0)
(-0.360734082424 -0.0209225112233 0)
(-0.36694555792 -0.0187082514954 0)
(-0.372411634986 -0.016626993738 0)
(-0.377177311621 -0.0146676380398 0)
(-0.381282865792 -0.0128192760068 0)
(-0.384764246796 -0.0110715254885 0)
(-0.387653494215 -0.00941472125869 0)
(-0.389979143104 -0.00784000732257 -6.73871463943e-29)
(-0.391766597087 -0.006339371172 6.73337918325e-29)
(-0.393038548819 -0.00490561600423 0)
(-0.393815679486 -0.00353215706392 0)
(-0.3941173811 -0.00221252747426 0)
(-0.393960195757 -0.000940182421073 0)
(-0.393351864767 0.000289214476775 0)
(-0.392325212658 0.00147163484972 0)
(-0.39089348323 0.00260617525168 0)
(-0.389062813822 0.00370017460263 0)
(-0.386843403852 0.00475995657042 0)
(-0.384244287936 0.00579060760028 0)
(-0.381273958636 0.00679590444079 0)
(-0.377939847531 0.00777931626026 0)
(-0.374248297788 0.00874424906336 0)
(-0.370204536047 0.00969411739652 0)
(-0.365812637809 0.0106323473999 0)
(-0.361075493008 0.0115623432977 0)
(-0.35599478724 0.0124874242498 0)
(-0.35057101404 0.0134107329269 0)
(-0.344803532695 0.0143351177008 0)
(-0.338690684571 0.0152629929342 0)
(-0.332229978427 0.0161961854228 0)
(-0.325418351055 0.0171357788519 0)
(-0.318252503884 0.0180819718658 0)
(-0.310729308703 0.0190339683744 0)
(-0.302846266937 0.0199899207929 0)
(-0.294601997261 0.0209469473996 0)
(-0.285996716833 0.0219012436601 0)
(-0.277032673808 0.022848303423 0)
(-0.267714483888 0.0237832610014 0)
(-0.258049319275 0.0247013621333 0)
(-0.248046896836 0.0255985647403 0)
(-0.237719215865 0.026472261309 0)
(-0.227079999191 0.0273221144208 0)
(-0.216143803322 0.0281509791661 0)
(-0.204924777645 0.0289658904573 0)
(-0.193435058198 0.0297790795048 0)
(-0.18168277357 0.0306090100814 0)
(-0.169669757812 0.0314812037035 0)
(-0.157388939045 0.0324289566515 0)
(-0.14482136518 0.0334935725687 0)
(-0.131933212067 0.0347234757358 0)
(-0.118672963985 0.0361716064021 0)
(-0.104968839515 0.0378882393445 0)
(-0.0907275481436 0.0399034580584 0)
(-0.0758343572249 0.0421945037894 0)
(-0.0601438873432 0.0446322658507 0)
(-0.0434925545777 0.0468335595811 0)
(-0.0262124362979 0.0475655204389 0)
(-0.0101552552179 0.0435560249715 0)
(-0.0185484088167 0.0120467752307 0)
(-0.0347428752812 -0.0235369179366 0)
(-0.0545666020603 -0.0446917598621 0)
(-0.0752298441252 -0.0608263072504 0)
(-0.0958296091812 -0.0721693363247 0)
(-0.116405256579 -0.0794612841421 0)
(-0.136877368433 -0.0827462949863 0)
(-0.157181285585 -0.0832827512728 0)
(-0.176959076416 -0.0819451473215 0)
(-0.195915604839 -0.0792821178187 0)
(-0.213859148949 -0.0757100180411 0)
(-0.230676749619 -0.0715490252688 0)
(-0.246322571684 -0.0670482733704 0)
(-0.260797069835 -0.0623984676469 0)
(-0.274131120596 -0.0577411563266 0)
(-0.286373627113 -0.0531769528555 0)
(-0.297582586747 -0.0487732754595 0)
(-0.30781898718 -0.0445715039751 0)
(-0.317142906238 -0.0405933260238 0)
(-0.325611229359 -0.0368461143051 0)
(-0.333276487645 -0.0333272916557 0)
(-0.340186425966 -0.0300277382257 0)
(-0.346384015162 -0.0269343565959 0)
(-0.351907712135 -0.024031937346 0)
(-0.3567918412 -0.0213044689307 0)
(-0.361067020882 -0.0187360217649 0)
(-0.364760594872 -0.0163113145018 0)
(-0.367897044846 -0.0140160466272 0)
(-0.370498364105 -0.0118370644383 0)
(-0.372584369003 -0.00976242501384 0)
(-0.374172978407 -0.00778140450294 0)
(-0.37528064883 -0.00588438382364 0)
(-0.375923169947 -0.00406242295466 0)
(-0.376115981637 -0.00230681733373 0)
(-0.375870809366 -0.000610277762388 0)
(-0.37518804992 0.00102977441339 0)
(-0.374114277821 0.00261173980321 0)
(-0.372640244926 0.00413987693411 0)
(-0.370780013028 0.00562006541202 0)
(-0.368542986309 0.00705706225892 0)
(-0.365938248586 0.00845570586554 0)
(-0.362974102322 0.00982060503765 0)
(-0.359657932289 0.0111562818585 0)
(-0.355996139045 0.012467265335 0)
(-0.351994071533 0.0137581384205 0)
(-0.34765595455 0.0150335388626 8.12550729988e-29)
(-0.342984819321 0.0162981163637 -8.20192520409e-29)
(-0.337982451116 0.0175564460692 0)
(-0.332649369863 0.0188128984099 0)
(-0.326984860466 0.0200714675423 0)
(-0.320987069162 0.0213355645052 0)
(-0.314653180274 0.0226077862416 0)
(-0.307979683804 0.0238896773441 0)
(-0.300962738045 0.0251815069833 0)
(-0.293598623098 0.0264820882143 0)
(-0.285884271034 0.0277886701496 0)
(-0.277817847052 0.0290969344091 0)
(-0.269399344053 0.030401125566 1.20647892379e-28)
(-0.260631143625 0.0316943394295 -1.23700143997e-28)
(-0.251518493494 0.0329689823499 0)
(-0.242069846491 0.0342174139608 0)
(-0.232297000397 0.0354327781835 0)
(-0.222214990069 0.0366099983033 0)
(-0.211841679297 0.0377469382867 0)
(-0.201197020783 0.0388456693241 0)
(-0.19030196758 0.0399138373393 0)
(-0.179177071423 0.0409659939941 0)
(-0.16784060699 0.0420251285363 0)
(-0.156306524959 0.0431236366481 0)
(-0.144582165517 0.0443043966523 0)
(-0.132665379667 0.0456214402422 0)
(-0.120541670821 0.0471388373569 0)
(-0.108181327241 0.0489280653686 0)
(-0.0955352531467 0.0510615140062 0)
(-0.0825307870645 0.0535954623386 0)
(-0.0690716712629 0.0565328516075 0)
(-0.0550172299019 0.0597524569452 0)
(-0.0400852013563 0.062851827953 0)
(-0.0245321866322 0.0643842903336 0)
(-0.00905275511693 0.0605526315648 0)
(-0.0247038698193 -0.0191104696304 0)
(-0.0416310847078 -0.0446521199138 0)
(-0.0638744315602 -0.0655348460112 0)
(-0.0854043154447 -0.0815301421565 0)
(-0.10602114625 -0.0925800577303 0)
(-0.125815375424 -0.0992962333776 0)
(-0.144872472127 -0.102164922119 0)
(-0.163218741229 -0.102155989979 0)
(-0.180724754208 -0.100049387246 0)
(-0.197289819809 -0.0964487954082 0)
(-0.212853623479 -0.0918385381003 0)
(-0.227394580809 -0.0865980837663 0)
(-0.240923960345 -0.0810197719014 0)
(-0.253474295301 -0.0753222603073 0)
(-0.265089794604 -0.0696628980584 0)
(-0.275819045743 -0.064149327332 0)
(-0.285710330413 -0.0588501972131 0)
(-0.294809044823 -0.0538046596507 0)
(-0.303156600962 -0.0490303993985 0)
(-0.310790235133 -0.0445301229549 0)
(-0.317743289524 -0.0402965900391 0)
(-0.324045681055 -0.036316372971 0)
(-0.329724394773 -0.032572572164 0)
(-0.334803924831 -0.0290467150592 0)
(-0.339306639471 -0.0257200398695 0)
(-0.343253074687 -0.0225743291881 0)
(-0.346662175043 -0.0195924206565 0)
(-0.349551496808 -0.0167584878115 0)
(-0.351937363836 -0.0140581629521 0)
(-0.353834964226 -0.0114785709778 0)
(-0.355258498155 -0.00900831394056 -7.23368707379e-29)
(-0.356221718246 -0.00663728782721 7.26129035373e-29)
(-0.356738724257 -0.00435610529225 0)
(-0.35682281521 -0.00215580321789 0)
(-0.356480635263 -3.04115862742e-05 0)
(-0.355722607985 0.00201852240317 0)
(-0.35458226125 0.00399428803596 0)
(-0.353055043899 0.00590690842322 0)
(-0.35115415233 0.00776182012457 0)
(-0.348888589036 0.00956464905116 0)
(-0.346267215199 0.0113208552933 0)
(-0.34329829466 0.0130357820799 0)
(-0.339989363439 0.0147147778284 0)
(-0.336347105608 0.016363291539 0)
(-0.332377232302 0.017986923859 0)
(-0.328084358779 0.0195914273944 0)
(-0.323471885996 0.0211826523532 0)
(-0.318541899734 0.0227664338249 0)
(-0.313295104534 0.0243484185112 0)
(-0.307730812325 0.0259338322303 0)
(-0.301847006704 0.0275271949068 0)
(-0.295640502789 0.0291319967427 0)
(-0.28910721884 0.030750357416 0)
(-0.282242568963 0.03238269839 0)
(-0.275041976536 0.0340274652035 0)
(-0.26750149572 0.0356809419255 0)
(-0.259618514444 0.0373372013635 0)
(-0.251392496816 0.0389882320843 0)
(-0.242825707579 0.0406242784359 0)
(-0.233923864327 0.0422344031566 0)
(-0.22469666268 0.0438072852854 0)
(-0.215158089079 0.0453322862978 0)
(-0.205326485585 0.0468006932317 0)
(-0.195224287237 0.048207219441 0)
(-0.184877424752 0.0495515602662 0)
(-0.17431429326 0.0508402112004 0)
(-0.1635646264 0.0520878515918 0)
(-0.152657500281 0.0533197099353 0)
(-0.141619455659 0.0545722799163 0)
(-0.130472602711 0.0558947184355 0)
(-0.119231638321 0.0573505233119 0)
(-0.107900713107 0.0590158723937 0)
(-0.0964710523 0.0609773231195 0)
(-0.0849167351273 0.0633278236564 0)
(-0.07318670581 0.0661523970263 0)
(-0.0612042923354 0.0694910578984 0)
(-0.0488579715893 0.0732578814686 0)
(-0.0357276332495 0.0771309615326 0)
(-0.0222720996837 0.0795846399885 0)
(-0.00779972027027 0.076220654401 0)
(-0.0221615070064 -0.0439852535008 0)
(-0.0423779148648 -0.0690895669662 0)
(-0.0669246600792 -0.0881717069669 0)
(-0.0889869412728 -0.102742347749 0)
(-0.109453583297 -0.112570695301 0)
(-0.128494274087 -0.118152645746 0)
(-0.14631702865 -0.120064406559 0)
(-0.1630607835 -0.119128611432 0)
(-0.178763566185 -0.116068160859 0)
(-0.193460620932 -0.111493818876 0)
(-0.207190846396 -0.105910468359 0)
(-0.22000021258 -0.0997189205141 0)
(-0.231939249538 -0.0932263416109 0)
(-0.243058243449 -0.0866587553031 0)
(-0.25340378241 -0.0801749797093 0)
(-0.263016867692 -0.073880442658 0)
(-0.271932549291 -0.0678398368736 0)
(-0.28018053655 -0.0620879626482 0)
(-0.287786250913 -0.0566385121741 0)
(-0.294771926982 -0.0514908617492 0)
(-0.301157542853 -0.046635124768 0)
(-0.306961500963 -0.0420557930848 0)
(-0.312201068874 -0.0377342920462 0)
(-0.31689263082 -0.033650731331 0)
(-0.321051811565 -0.0297850764659 0)
(-0.324693528908 -0.0261179101802 0)
(-0.327832020811 -0.0226309057926 0)
(-0.330480870511 -0.0193070991312 0)
(-0.332653008787 -0.0161310240502 0)
(-0.33436067531 -0.0130887665691 0)
(-0.335615542858 -0.0101679589022 0)
(-0.336429474922 -0.00735762145329 0)
(-0.336815279937 -0.00464775149831 0)
(-0.336783555679 -0.00202936339151 0)
(-0.336334068943 0.000503078292198 0)
(-0.335502347257 0.00294756707825 0)
(-0.334283522904 0.00530817780703 0)
(-0.33269040301 0.00759539075528 0)
(-0.330733419714 0.00981511328051 0)
(-0.328422121814 0.0119734303563 0)
(-0.325765596043 0.0140763154922 0)
(-0.322772446985 0.0161297502564 0)
(-0.319450697902 0.0181398463001 0)
(-0.315807649207 0.0201129469981 0)
(-0.311849714331 0.0220556861288 0)
(-0.307582242467 0.0239749907639 0)
(-0.303009339409 0.025878018132 0)
(-0.298133702228 0.0277720176816 0)
(-0.29295648851 0.0296641122658 0)
(-0.287477245089 0.0315609972984 0)
(-0.281693923797 0.0334685641061 0)
(-0.27560301203 0.0353914630834 0)
(-0.269199802649 0.0373326336497 0)
(-0.262478819661 0.0392928403858 0)
(-0.255434404746 0.0412702636397 0)
(-0.248061454264 0.0432602016326 0)
(-0.240356277706 0.0452549449876 0)
(-0.23231753209 0.047243874316 0)
(-0.22394715299 0.0492138443978 0)
(-0.215251215018 0.0511498541315 0)
(-0.206240700589 0.0530359741746 0)
(-0.196931999485 0.0548567211812 0)
(-0.187347188547 0.056598498472 0)
(-0.177513877262 0.0582515857322 0)
(-0.167464841054 0.05981181283 0)
(-0.157236717669 0.0612833096918 0)
(-0.146869591162 0.0626791252339 0)
(-0.136404210759 0.0640256002348 0)
(-0.125880389481 0.0653619695635 0)
(-0.115335213291 0.0667416848829 0)
(-0.104800327716 0.0682366246716 0)
(-0.0942975019232 0.0699339116237 0)
(-0.0838360490735 0.0719328797066 0)
(-0.0734116877038 0.0743453386441 0)
(-0.0629933323368 0.0772849714491 0)
(-0.052517660561 0.0808353231863 0)
(-0.0419426468344 0.0849548071841 0)
(-0.0306463353376 0.0894430686237 0)
(-0.0195721687964 0.0928366273921 0)
(-0.00644067328071 0.0901699003424 0)
(-0.0198904242421 -0.0725905700907 0)
(-0.0411848335774 -0.0949971523815 0)
(-0.0665313536284 -0.111526120263 0)
(-0.0884605552895 -0.124002371806 0)
(-0.108504888818 -0.132044280681 0)
(-0.126760472608 -0.136087962126 0)
(-0.143508459523 -0.136696452856 0)
(-0.158959037934 -0.134600378899 0)
(-0.173256553689 -0.130477622227 0)
(-0.186524261722 -0.124922634295 0)
(-0.198866034001 -0.118431861437 1.11384900494e-28)
(-0.210370089163 -0.111399731862 -1.09836380104e-28)
(-0.221109347138 -0.104125796047 0)
(-0.231141774963 -0.0968271596966 0)
(-0.24051189421 -0.0896534646602 0)
(-0.249253130659 -0.08270183034 0)
(-0.257390560569 -0.0760302129864 0)
(-0.264943521346 -0.0696684497977 0)
(-0.271927755903 -0.0636268736118 0)
(-0.27835696586 -0.0579027485091 0)
(-0.284243805019 -0.052484930196 0)
(-0.289600427043 -0.0473571695387 0)
(-0.294438724353 -0.0425004212923 0)
(-0.298770381699 -0.0378944409441 0)
(-0.302606839265 -0.0335188769245 0)
(-0.305959230939 -0.0293540038416 0)
(-0.308838339262 -0.025381197671 0)
(-0.311254578012 -0.0215832262272 0)
(-0.31321796687 -0.0179444120918 0)
(-0.314738080786 -0.0144507006731 0)
(-0.315824224499 -0.0110896219988 0)
(-0.31648631573 -0.00785013738616 7.97393728232e-29)
(-0.316735461309 -0.00472255495523 -8.04459506551e-29)
(-0.316579553669 -0.00169899413231 0)
(-0.316013842917 0.00122555645848 0)
(-0.315080325884 0.00405208946556 0)
(-0.313767198018 0.00678584599236 0)
(-0.312088784819 0.00943566402948 0)
(-0.310054340691 0.0120084598275 0)
(-0.307673403724 0.0145106697748 0)
(-0.304955405344 0.0169485706448 0)
(-0.30190958193 0.0193285340882 0)
(-0.298544813326 0.0216572112971 0)
(-0.294869429312 0.0239416669247 0)
(-0.290890987915 0.0261894579887 0)
(-0.28661603174 0.0284086470381 0)
(-0.282049832882 0.0306077356191 0)
(-0.277196143828 0.0327955036734 0)
(-0.272056979264 0.0349807431548 0)
(-0.266632460557 0.0371718801939 0)
(-0.260920759434 0.0393764899964 0)
(-0.254918179527 0.0416007209758 0)
(-0.248619412777 0.0438486595281 0)
(-0.24201799689 0.0461216873309 0)
(-0.235106986588 0.0484178929748 0)
(-0.227879833764 0.0507316112385 0)
(-0.220331437506 0.0530531854097 0)
(-0.212459325497 0.0553689926277 0)
(-0.204264850302 0.0576618565354 0)
(-0.195754259358 0.0599118699647 0)
(-0.186939826711 0.0620973144542 0)
(-0.17784049608 0.0641965910728 0)
(-0.168482533601 0.0661895744778 0)
(-0.158899248085 0.0680606384047 0)
(-0.14913144986 0.0697996244544 0)
(-0.139224619661 0.0714072266925 0)
(-0.129231128342 0.0728922444779 0)
(-0.119204232354 0.0742810566816 0)
(-0.109199041593 0.075614656009 0)
(-0.099267762348 0.0769481526831 0)
(-0.0894601553495 0.0783611056455 0)
(-0.0798174271011 0.0799525208488 0)
(-0.07036385078 0.0818332522482 0)
(-0.0611155624157 0.0841329022352 0)
(-0.0520610995047 0.086993258237 0)
(-0.0431343958037 0.0905452180788 0)
(-0.0344158559787 0.0948003263826 0)
(-0.0249768796688 0.0996690157205 0)
(-0.0165061698447 0.103902366477 0)
(-0.00499665089035 0.102111183433 0)
(-0.0180770140105 -0.100779358192 0)
(-0.0393084285023 -0.120707796894 0)
(-0.0642901639182 -0.134683714432 0)
(-0.0855209083341 -0.144841876231 0)
(-0.104874688841 -0.15084260357 0)
(-0.122281231135 -0.153128944375 0)
(-0.138055844206 -0.152248657136 0)
(-0.152435761635 -0.148875262339 0)
(-0.165620842927 -0.143645870805 0)
(-0.177781766834 -0.137124982186 0)
(-0.189057587829 -0.129782794211 0)
(-0.199558144322 -0.121989990558 0)
(-0.209366470752 -0.114024675074 0)
(-0.218542677444 -0.106085611653 0)
(-0.227128761212 -0.0983078651516 0)
(-0.235153509363 -0.0907778914925 0)
(-0.242636855152 -0.0835465160073 0)
(-0.249593296338 -0.0766392625446 0)
(-0.256034297645 -0.0700641521464 0)
(-0.261969798823 -0.0638173956458 0)
(-0.267409043707 -0.057887473331 0)
(-0.272360955722 -0.052258039647 0)
(-0.276834249459 -0.0469099929381 0)
(-0.280837416012 -0.0418229542291 0)
(-0.284378670815 -0.036976322412 0)
(-0.287465915117 -0.0323500180602 0)
(-0.290106734238 -0.0279249925251 0)
(-0.292308424703 -0.023683563448 0)
(-0.294078011825 -0.0196096320077 0)
(-0.295422268031 -0.015688797419 0)
(-0.296347983088 -0.0119083000282 0)
(-0.296862799588 -0.00825681180504 0)
(-0.29697536625 -0.00472462809989 0)
(-0.296690473571 -0.00130489967928 0)
(-0.296000482508 0.00200595723105 0)
(-0.29495326543 0.00520916320195 0)
(-0.293529430939 0.00831110915566 0)
(-0.291744674899 0.0113197844995 0)
(-0.289607696864 0.0142418504092 0)
(-0.287128270787 0.017083585453 0)
(-0.284316458123 0.0198512530985 0)
(-0.281182456244 0.0225513827292 0)
(-0.277736379832 0.0251909852403 0)
(-0.273988016143 0.0277777176308 0)
(-0.269946544047 0.0303199908643 9.45530501343e-29)
(-0.265620216879 0.0328270055471 -9.51239795378e-29)
(-0.261016017216 0.0353086941157 0)
(-0.256139302243 0.0377755464286 0)
(-0.25099346967 0.0402382984611 0)
(-0.245579685173 0.0427074707687 0)
(-0.239896720128 0.0451927565127 0)
(-0.233940952559 0.0477022762072 0)
(-0.227706588138 0.0502417309315 0)
(-0.221186141526 0.0528135254095 0)
(-0.214371197602 0.0554159434337 0)
(-0.207253471234 0.0580424479939 0)
(-0.199826084426 0.0606813018534 0)
(-0.192085056393 0.0633154631226 0)
(-0.184030890233 0.0659229619162 0)
(-0.175669695868 0.0684781328962 0)
(-0.167015026745 0.0709519730862 0)
(-0.158088324851 0.073315514113 0)
(-0.148920635855 0.0755399495262 0)
(-0.139550922314 0.077602578215 0)
(-0.13003005021 0.0794840766842 0)
(-0.120411442473 0.081181592016 0)
(-0.110763755457 0.082695774961 0)
(-0.101150943077 0.084051769308 0)
(-0.0916490571444 0.0852925779187 0)
(-0.0823245792677 0.0864719196079 0)
(-0.0732455478789 0.0876750749359 0)
(-0.0644803881937 0.0890164185016 0)
(-0.0560653564032 0.0906184812618 0)
(-0.0480367436885 0.0926274550299 0)
(-0.0404067842698 0.0952132108352 0)
(-0.0330834243429 0.0985509361037 0)
(-0.0263245801495 0.102724194719 0)
(-0.0187911337842 0.107702200504 0)
(-0.0130987347764 0.112584026134 0)
(-0.00347236873314 0.11180147117 0)
(-0.0164549375875 -0.127235903449 0)
(-0.0370134282658 -0.145326201827 0)
(-0.0610197339631 -0.157000544607 0)
(-0.0812237592431 -0.164881949449 0)
(-0.0996965971693 -0.168807229157 0)
(-0.116197616835 -0.169278489405 0)
(-0.131059995731 -0.166850301366 0)
(-0.144516865023 -0.162166597427 0)
(-0.156788461545 -0.155830190625 0)
(-0.168062967521 -0.148370356842 0)
(-0.17849242247 -0.140222207403 0)
(-0.18819372922 -0.131724005467 0)
(-0.197252332632 -0.123125919906 0)
(-0.205728043889 -0.114604457718 0)
(-0.213661460415 -0.10627829645 0)
(-0.221079855158 -0.098222748077 0)
(-0.228001907768 -0.0904816414513 0)
(-0.234441096631 -0.0830764441684 0)
(-0.240407890246 -0.07601299172 0)
(-0.245911020079 -0.0692863655226 0)
(-0.250958137502 -0.0628844283736 0)
(-0.255556109316 -0.0567904133209 0)
(-0.259711134875 -0.0509848433283 0)
(-0.26342879998 -0.045446965096 0)
(-0.266714131219 -0.0401558159914 0)
(-0.269571680357 -0.0350910019602 0)
(-0.272005640974 -0.0302332407163 0)
(-0.274019967439 -0.0255647212257 0)
(-0.275618464322 -0.02106933949 0)
(-0.276804932421 -0.0167328245487 0)
(-0.277583640893 -0.0125426123522 0)
(-0.277960009681 -0.00848739249164 0)
(-0.277939692845 -0.00455730445274 8.98463026187e-29)
(-0.277523266921 -0.00074665268175 -9.119637764e-29)
(-0.276701368841 0.00294417169819 0)
(-0.27552790066 0.00651719312829 0)
(-0.273976619918 0.00998265778203 0)
(-0.272063914052 0.0133464806898 0)
(-0.269798210899 0.0166142984958 0)
(-0.267189721776 0.0197916845572 0)
(-0.264249353563 0.0228844634686 0)
(-0.260988501173 0.0258989680593 0)
(-0.257418793631 0.0288422696177 0)
(-0.253551816009 0.0317223755762 0)
(-0.249398781204 0.0345483792596 0)
(-0.244970142286 0.0373305367519 0)
(-0.240275148728 0.040080237923 0)
(-0.235321365614 0.0428098350079 0)
(-0.230114191231 0.0455322957833 0)
(-0.224656425456 0.0482606555679 0)
(-0.218947955603 0.051007257887 0)
(-0.212985627373 0.0537828065427 0)
(-0.206763391183 0.0565952461515 0)
(-0.200272791541 0.0594485714008 0)
(-0.193503798537 0.0623417094847 0)
(-0.186446105378 0.0652674373033 0)
(-0.179090669724 0.0682118556506 0)
(-0.171431525917 0.0711541235631 0)
(-0.163468190355 0.0740664585426 0)
(-0.155206084341 0.0769168473727 0)
(-0.146660268189 0.0796668695238 0)
(-0.137854027592 0.0822793863271 0)
(-0.128824693259 0.0847136387113 0)
(-0.119614794891 0.0869397633278 0)
(-0.110290342 0.0889237730939 0)
(-0.100906254114 0.0906608275577 0)
(-0.0915591145029 0.0921381812012 0)
(-0.0823119479323 0.0933771282273 0)
(-0.0732755916244 0.0944241193753 0)
(-0.0645301133776 0.0953308283754 0)
(-0.0561553986444 0.0961819598232 0)
(-0.0482634940982 0.0971117096772 0)
(-0.0409000509262 0.0982570550202 0)
(-0.0341215247488 0.0997785137811 0)
(-0.0279727393976 0.101877433872 0)
(-0.0223190848972 0.104764675209 0)
(-0.0176210409859 0.108625763122 0)
(-0.0121028368165 0.113428173528 0)
(-0.00932535059628 0.118696058949 0)
(-0.00185312846891 0.119006894449 0)
(-0.0149308133343 -0.151836337016 0)
(-0.034477925068 -0.168531270838 0)
(-0.0572072948399 -0.178145455376 0)
(-0.0762210387012 -0.183894467704 0)
(-0.0937031450627 -0.185828816485 0)
(-0.109266296705 -0.184531193749 0)
(-0.123257254991 -0.180581251951 0)
(-0.135886803229 -0.174612076491 0)
(-0.147374544967 -0.167199072439 0)
(-0.157907028047 -0.158836414578 0)
(-0.167635041559 -0.149921834654 0)
(-0.176673575966 -0.140758823959 0)
(-0.18510618508 -0.131568273555 0)
(-0.19299146477 -0.122504117991 0)
(-0.200369740872 -0.113668934666 0)
(-0.207268813771 -0.10512730985 0)
(-0.213708284067 -0.096916309378 0)
(-0.219702476531 -0.0890532712997 0)
(-0.225262241244 -0.0815414884912 0)
(-0.23039597994 -0.0743743688021 0)
(-0.235110206612 -0.0675385385038 0)
(-0.239409869832 -0.061016208568 0)
(-0.243298580247 -0.0547870050727 0)
(-0.246778820676 -0.0488293867535 0)
(-0.249852172923 -0.0431217275744 0)
(-0.252519571658 -0.0376431179562 0)
(-0.254781570078 -0.0323739262374 0)
(-0.256638563141 -0.0272961661935 0)
(-0.258090948011 -0.022393733199 0)
(-0.259139432181 -0.0176525281158 0)
(-0.259785878252 -0.0130602871196 0)
(-0.260033840365 -0.00860594275437 0)
(-0.259885308924 -0.00427974133438 0)
(-0.259333284846 -7.71933708987e-05 0)
(-0.258390303549 0.00399606490412 0)
(-0.257078441016 0.00794295946937 0)
(-0.255385461488 0.0117767486827 0)
(-0.253325264827 0.0155003677473 0)
(-0.250906983033 0.019117995152 0)
(-0.248141452456 0.0226341660439 0)
(-0.245040475565 0.0260539549732 0)
(-0.241616648976 0.0293831891587 0)
(-0.237883142359 0.0326286965971 0)
(-0.233853431083 0.0357985530433 0)
(-0.229540952462 0.0389022992156 0)
(-0.224958666931 0.041951091548 0)
(-0.220118519607 0.0449577380204 0)
(-0.215030820539 0.0479365619441 0)
(-0.209703583738 0.0509030429112 0)
(-0.204141887986 0.0538731932097 0)
(-0.198347357535 0.0568626293893 0)
(-0.192317833279 0.0598853958307 0)
(-0.186047374013 0.0629525019781 0)
(-0.179526747407 0.0660702802113 0)
(-0.17274423207 0.0692389816993 0)
(-0.165687248082 0.0724509979009 0)
(-0.158344253389 0.0756902094185 0)
(-0.150706530332 0.0789318130938 0)
(-0.142773016829 0.0821404785618 0)
(-0.134547192279 0.0852782608646 0)
(-0.126047068203 0.0882937465062 0)
(-0.11729496317 0.0911422574112 0)
(-0.108339596664 0.0937654288374 0)
(-0.0992184300677 0.0961285662402 0)
(-0.0900277470141 0.098174081392 0)
(-0.0808010850846 0.0998984026374 0)
(-0.0716963054622 0.101270858414 0)
(-0.0627419968082 0.102305076468 0)