/*--------------------------------*- C++ -*----------------------------------*\
| =========                 |                                                 |
| \\      /  F ield         | OpenFOAM: The Open Source CFD Toolbox           |
|  \\    /   O peration     | Version:  v1806                                 |
|   \\  /    A nd           | Web:      www.OpenFOAM.com                      |
|    \\/     M anipulation  |                                                 |
\*---------------------------------------------------------------------------*/
FoamFile
{
    version     2.0;
    format      ascii;
    class       volVectorField;
    location    "1000";
    object      U;
}
// * * * * * * * * * * * * * * * * * * * * * * * * * * * * * * * * * * * * * //

dimensions      [0 1 -1 0 0 0 0];


internalField   nonuniform List<vector> 
6400
(
(0.00598586861698 0.00783883384874 0)
(0.0137706952449 0.00509246207159 0)
(0.0182085829593 0.00424110519779 0)
(0.017331623034 0.00416927325219 0)
(0.0128777182088 -0.00166878508477 0)
(-0.0147594123201 -0.0140366687279 0)
(-0.0386204395033 -0.0145439024048 0)
(-0.0626790712171 -0.0144422807463 0)
(-0.0870813103214 -0.014111221597 0)
(-0.111172606497 -0.0136097814395 0)
(-0.134581410776 -0.0129861793966 0)
(-0.157047185436 -0.0122845024637 0)
(-0.178395162989 -0.0115402732959 0)
(-0.198517809933 -0.0107809304976 0)
(-0.217360094843 -0.0100268745353 0)
(-0.2349069415 -0.00929261082466 0)
(-0.25117261043 -0.00858784916696 0)
(-0.266191910362 -0.00791851146043 0)
(-0.280013130855 -0.00728762187111 0)
(-0.292692535734 -0.00669606579317 0)
(-0.304290215594 -0.00614321516702 0)
(-0.314867078857 -0.0056274265217 0)
(-0.324482763066 -0.00514642471992 0)
(-0.333194265679 -0.00469758863351 0)
(-0.341055119749 -0.00427815605042 0)
(-0.348114969073 -0.00388536406915 0)
(-0.354419426319 -0.00351653918035 0)
(-0.360010121777 -0.00316914840118 0)
(-0.364924870379 -0.00284081970902 0)
(-0.369197900825 -0.00252933732492 0)
(-0.372860111827 -0.00223261676472 0)
(-0.375939344562 -0.00194866445409 0)
(-0.37846063396 -0.00167549934699 0)
(-0.380446270071 -0.00141093145581 0)
(-0.381915381676 -0.00115211826658 0)
(-0.382883116662 -0.000895345077467 0)
(-0.383360772576 -0.000637006134526 0)
(-0.383360529203 -0.000375862253946 0)
(-0.382886198191 -0.000114482783505 0)
(-0.381943058265 0.000142670184559 0)
(-0.380545313946 0.000393277158065 0)
(-0.378705469073 0.000637364819354 0)
(-0.376435182954 0.000875633293246 0)
(-0.373744613788 0.0011090059719 0)
(-0.370642270591 0.00133846764887 0)
(-0.367134981881 0.001565005445 0)
(-0.363227919428 0.00178958149144 0)
(-0.358924658201 0.00201311250823 0)
(-0.354227273931 0.00223644812465 0)
(-0.349136486074 0.0024603451785 0)
(-0.34365185491 0.00268543866587 0)
(-0.337772039258 0.00291221079819 0)
(-0.331495116919 0.00314096149101 0)
(-0.324818963734 0.00337178371699 0)
(-0.317741679593 0.00360454858052 0)
(-0.310262041234 0.00383890453549 0)
(-0.302379953041 0.00407429600737 0)
(-0.294096858509 0.00431000570028 0)
(-0.285416067408 0.00454522516587 0)
(-0.276342947601 0.00477915652212 0)
(-0.266884926573 0.00501114790054 0)
(-0.257051246325 0.00524086328071 0)
(-0.246852416407 0.0054684869093 0)
(-0.236299313109 0.00569496075839 0)
(-0.225401877273 0.00592225313478 0)
(-0.214167369511 0.0061536550048 0)
(-0.202598155236 0.00639409763205 0)
(-0.190689012597 0.00665047627171 0)
(-0.178423965759 0.0069319584129 0)
(-0.165772652436 0.00725022202244 0)
(-0.15268633763 0.0076195007107 0)
(-0.139094145196 0.00805628240613 0)
(-0.124901129594 0.00857814957112 0)
(-0.109989671124 0.00920014190897 0)
(-0.0942199254535 0.00992647739545 0)
(-0.077424526391 0.0107390787839 0)
(-0.0594614444034 0.011585759868 0)
(-0.040583486093 0.0123077393532 0)
(-0.0223522507957 0.012168436053 0)
(-0.00799228388806 0.00798361339235 0)
(0.00352323716734 0.0174037949829 0)
(0.00916676820633 0.0114140149405 0)
(0.0022758442917 -0.000809820338767 0)
(-0.023961000141 -0.0187657794456 0)
(-0.0435363950375 -0.0274897014204 0)
(-0.0659088297159 -0.0331636450545 0)
(-0.0893271969987 -0.0354315072718 0)
(-0.113526420253 -0.0362116621566 0)
(-0.137938836643 -0.0360917739929 0)
(-0.16191513798 -0.0353297918216 0)
(-0.185070674442 -0.03410320978 0)
(-0.207143816448 -0.032551696762 0)
(-0.227968214987 -0.0307874774951 0)
(-0.247449020034 -0.0288999110201 0)
(-0.265545456019 -0.0269584458763 0)
(-0.282256680341 -0.0250153100931 0)
(-0.29761024934 -0.0231081837242 0)
(-0.31165284897 -0.0212628154656 0)
(-0.324443035358 -0.0194954765055 0)
(-0.336045723713 -0.0178151577698 0)
(-0.346528149847 -0.016225454387 0)
(-0.355957030157 -0.0147261201846 0)
(-0.364396664559 -0.0133143054418 0)
(-0.371907757724 -0.0119855105566 0)
(-0.378546770427 -0.0107342976714 0)
(-0.384365649262 -0.00955480423422 0)
(-0.389411816784 -0.00844109927953 0)
(-0.393728332278 -0.00738741669858 0)
(-0.397354154217 -0.00638829319977 0)
(-0.400324450636 -0.00543863412249 0)
(-0.40267092208 -0.00453372966058 0)
(-0.404422152233 -0.00366922984844 0)
(-0.405604052212 -0.00284100818915 0)
(-0.406240290565 -0.00204469721475 0)
(-0.40635191739 -0.00127496895306 0)
(-0.405955241072 -0.000526405689674 0)
(-0.405059605601 0.000201865431437 0)
(-0.40370497424 0.000907518563938 0)
(-0.401918035614 0.00159226232744 0)
(-0.399723783218 0.00225709430163 0)
(-0.397134055885 0.00290267197107 0)
(-0.394158742211 0.00353079795343 0)
(-0.390805557186 0.00414365430996 0)
(-0.387080793545 0.00474356208797 0)
(-0.382989481845 0.00533287574727 0)
(-0.378535425727 0.00591393080845 0)
(-0.373721206888 0.00648900324369 0)
(-0.368548201223 0.00706026308253 0)
(-0.363016627021 0.00762971519772 0)
(-0.357125639518 0.00819912590655 0)
(-0.350873482801 0.00876993758721 0)
(-0.344257706682 0.00934317651238 0)
(-0.337275451717 0.00991936165937 0)
(-0.329923799403 0.0104984245997 0)
(-0.32220017725 0.0110796522459 0)
(-0.314102799964 0.0116616651661 0)
(-0.305631119595 0.0122424440855 0)
(-0.296786249061 0.0128194165497 0)
(-0.287571315939 0.0133896142362 0)
(-0.277991697468 0.0139499085616 0)
(-0.268055084585 0.0144973288402 0)
(-0.257771322217 0.0150294638659 0)
(-0.247151975861 0.0155449439493 0)
(-0.236209579493 0.0160439980415 0)
(-0.224956527444 0.0165290767628 0)
(-0.213403580423 0.0170055314659 0)
(-0.201557969123 0.0174823322913 0)
(-0.189421106837 0.0179727828045 0)
(-0.176985925492 0.0184951832796 0)
(-0.164233825896 0.0190733578901 0)
(-0.151131394021 0.0197367125633 0)
(-0.137627332905 0.0205195060824 0)
(-0.123650361993 0.0214584458091 0)
(-0.109108923145 0.0225853348145 0)
(-0.0938922845646 0.0239100824263 0)
(-0.0778740640226 0.0253942822201 0)
(-0.0609416973961 0.0269150531544 0)
(-0.0431453806971 0.0281289917507 0)
(-0.0252392418796 0.0278301842408 0)
(-0.0101914143958 0.0221793483814 0)
(-0.00123942001704 0.017221382764 0)
(-0.0156833690019 -0.00601016584517 0)
(-0.0339401877535 -0.0254963582606 -8.4532425713e-29)
(-0.0546985678633 -0.0389897473233 5.36314956645e-29)
(-0.0759274981146 -0.0489256511879 4.05087418992e-29)
(-0.0977784219284 -0.0558391326228 -3.30472772117e-29)
(-0.119979898067 -0.059257446611 2.80914107105e-29)
(-0.142410027139 -0.0603894509593 -2.49122639058e-29)
(-0.164601451186 -0.0599833792482 0)
(-0.186118111111 -0.0584833389643 0)
(-0.206665957134 -0.056212988106 0)
(-0.226052332823 -0.0534214188608 0)
(-0.244168634035 -0.0503038118635 0)
(-0.260968781313 -0.0470118609457 0)
(-0.276451970381 -0.0436607414623 0)
(-0.290648649059 -0.0403349677477 0)
(-0.303609476466 -0.0370937913909 0)
(-0.315396897731 -0.0339762077363 0)
(-0.326078951203 -0.0310054690151 0)
(-0.335724908542 -0.028193001366 0)
(-0.344402359605 -0.0255416760147 0)
(-0.35217539133 -0.0230484435789 0)
(-0.359103563211 -0.0207063845698 0)
(-0.365241440898 -0.0185062546609 0)
(-0.370638504324 -0.0164376123621 0)
(-0.375339296543 -0.0144896142812 0)
(-0.3793837177 -0.0126515532242 0)
(-0.382807397992 -0.01091320061 0)
(-0.385642099619 -0.00926500345274 0)
(-0.387916106199 -0.00769818427601 -7.02640694677e-29)
(-0.389654591708 -0.0062047855457 7.02154983256e-29)
(-0.390880048322 -0.00477763807648 0)
(-0.391612991571 -0.00341011116644 0)
(-0.39187262306 -0.00209559421411 0)
(-0.39167504097 -0.000827524629703 0)
(-0.391026906861 0.000398011153651 0)
(-0.389966705427 0.00157643326291 0)
(-0.388499447413 0.00270778220392 0)
(-0.386634360054 0.00379977660543 0)
(-0.384380960646 0.00485869282893 0)
(-0.381748113627 0.00588950295565 0)
(-0.378743966929 0.00689599859617 0)
(-0.375375572612 0.00788169100187 0)
(-0.371648868662 0.00885003089389 0)
(-0.367568656506 0.00980446840859 0)
(-0.363138571327 0.0107484482592 0)
(-0.358361054974 0.0116853683738 0)
(-0.353237347904 0.0126185082233 0)
(-0.347767516149 0.0135509278669 0)
(-0.341950528253 0.0144853402414 0)
(-0.335784395461 0.0154239615814 0)
(-0.329266385565 0.0163683492261 0)
(-0.322393316287 0.0173192395899 0)
(-0.315161927664 0.0182764035122 0)
(-0.307569324633 0.0192385386433 0)
(-0.299613471703 0.0202032206614 0)
(-0.291293712296 0.0211669341674 0)
(-0.282611276502 0.0221252031851 0)
(-0.273569732239 0.0230728384735 0)
(-0.264175328279 0.024004313653 0)
(-0.254437174786 0.0249142744949 0)
(-0.244367207151 0.0257981805744 0)
(-0.233979883718 0.0266530681345 0)
(-0.223291574789 0.0274784212451 0)
(-0.212319611988 0.0282771262838 0)
(-0.201080977984 0.0290564835823 0)
(-0.189590618348 0.0298292503856 0)
(-0.177859402846 0.0306146281479 0)
(-0.165891797348 0.0314390786557 0)
(-0.153683121218 0.0323370219598 0)
(-0.141216565334 0.0333507136001 0)
(-0.128460486581 0.0345287732452 0)
(-0.115365711504 0.0359228136756 0)
(-0.101862585233 0.0375782578926 0)
(-0.0878598669286 0.0395130580893 0)
(-0.0732492707472 0.0416786206443 0)
(-0.057911202775 0.043885545188 0)
(-0.0417273706545 0.0456064675897 0)
(-0.0249246438581 0.045341976177 0)
(-0.00983172081291 0.0388727579576 0)
(-0.0109974851275 0.00375245136965 0)
(-0.0321878982584 -0.0261129149462 0)
(-0.0523195502819 -0.0451715611649 0)
(-0.0737158605206 -0.0598575963822 0)
(-0.0949588604144 -0.070396616383 0)
(-0.116051601335 -0.0773739881506 0)
(-0.136844519564 -0.0808383867887 0)
(-0.157226412195 -0.0816731473277 0)
(-0.176944065894 -0.0805954040886 0)
(-0.195777827239 -0.078141973799 0)
(-0.213573738973 -0.0747347829533 0)
(-0.230240410284 -0.0707047211182 0)
(-0.245741317766 -0.0663096408266 0)
(-0.260080555275 -0.0617464756807 0)
(-0.273289804906 -0.0571610860746 0)
(-0.285417515663 -0.0526571277285 0)
(-0.296520735184 -0.0483042557213 0)
(-0.30665937824 -0.0441455709068 0)
(-0.315892499312 -0.0402041353278 0)
(-0.324276081787 -0.036488446046 0)
(-0.331861896565 -0.0329968561739 0)
(-0.338697065637 -0.0297210166888 0)
(-0.344824058457 -0.0266484654914 0)
(-0.350280932314 -0.0237645115775 0)
(-0.355101693586 -0.0210535607074 0)
(-0.359316706253 -0.0185000135994 0)
(-0.362953107389 -0.0160888447888 0)
(-0.366035206889 -0.0138059460232 0)
(-0.36858484691 -0.0116383012343 0)
(-0.370621697733 -0.00957406001023 0)
(-0.37216354189 -0.00760255708975 0)
(-0.373226760891 -0.00571419243246 0)
(-0.373827143068 -0.00389994315501 0)
(-0.373979907208 -0.00215090143671 0)
(-0.373695921236 -0.000459953337836 0)
(-0.372974797337 0.00117414703539 0)
(-0.371865885306 0.00275051850305 0)
(-0.370358138003 0.00427483484808 0)
(-0.368465526613 0.00575231373926 0)
(-0.366196979374 0.00718787589455 0)
(-0.363561244115 0.00858642066415 0)
(-0.360566266423 0.009952629208 0)
(-0.357219052469 0.0112910979892 0)
(-0.353525598808 0.0126064253424 0)
(-0.34949082589 0.0139032501344 0)
(-0.345118508776 0.0151862433862 8.46438461634e-29)
(-0.340411213784 0.0164600547823 -8.54515908553e-29)
(-0.335370255666 0.0177292138133 0)
(-0.329995692069 0.0189979857492 0)
(-0.324286372717 0.0202701851922 0)
(-0.318240060195 0.0215489542975 0)
(-0.31185363695 0.0228365180998 0)
(-0.305123408705 0.0241339355886 0)
(-0.298045507374 0.0254408710518 0)
(-0.29061638712 0.0267554149781 0)
(-0.282833395869 0.0280739864451 0)
(-0.274695393798 0.0293913480979 0)
(-0.266203381168 0.0307007615394 1.25257364227e-28)
(-0.257361086925 0.0319943101053 -1.28489750354e-28)
(-0.248175460329 0.0332634071413 0)
(-0.238657006911 0.0344994928919 0)
(-0.228819908627 0.0356949217394 0)
(-0.218681878072 0.0368440148434 0)
(-0.208263702858 0.0379442637769 0)
(-0.19758845113 0.0389976438508 0)
(-0.186680338431 0.0400119848095 0)
(-0.175563221076 0.0410023930908 0)
(-0.164258709342 0.0419926390902 0)
(-0.152784197045 0.0430160998432 0)
(-0.141150324038 0.0441170150473 0)
(-0.129357926343 0.0453506025178 0)
(-0.117395663743 0.04678101967 0)
(-0.105237288278 0.0484785041093 0)
(-0.0928364598223 0.0505111825117 0)
(-0.0801218950489 0.0529231826524 0)
(-0.0669974427721 0.0556912474977 0)
(-0.0533261806056 0.0586310369701 0)
(-0.0388643709721 0.0611713340929 0)
(-0.023550356175 0.0616532910564 0)
(-0.00900670919641 0.0551741782838 0)
(-0.0205690536248 -0.0228955045343 0)
(-0.039214960932 -0.04777471536 0)
(-0.0616014822446 -0.0666427272493 0)
(-0.0835867173976 -0.0811851992601 0)
(-0.104674885753 -0.0913652589026 0)
(-0.12490536971 -0.0976730712417 0)
(-0.144265617636 -0.100508058848 0)
(-0.162754796351 -0.100614920137 0)
(-0.180296611673 -0.0986633277304 0)
(-0.196831855021 -0.095219331115 0)
(-0.212328668182 -0.09075164444 0)
(-0.226784501395 -0.0856360077357 0)
(-0.240221494363 -0.0801651529912 0)
(-0.252678141674 -0.0745594938325 0)
(-0.264201621533 -0.0689784025151 0)
(-0.274841837178 -0.0635314590286 0)
(-0.28464752248 -0.0582890706696 0)
(-0.293664113498 -0.0532919532354 0)
(-0.301932893235 -0.0485591657732 0)
(-0.309490923601 -0.0440946080828 0)
(-0.316371383474 -0.0398920621418 0)
(-0.322604058339 -0.0359389631942 0)
(-0.328215836797 -0.0322191288087 0)
(-0.333231146245 -0.0287146727473 0)
(-0.337672309861 -0.0254073041913 0)
(-0.341559831907 -0.0222791765698 0)
(-0.344912631699 -0.0193134126038 0)
(-0.347748241087 -0.0164943984688 0)
(-0.350082951116 -0.0138079186945 0)
(-0.351931900002 -0.0112411990757 0)
(-0.353309231579 -0.008782896335 -7.55242357182e-29)
(-0.354228730978 -0.00642292059637 7.58209622347e-29)
(-0.354704640224 -0.00415186912505 0)
(-0.354749855759 -0.00196076187506 0)
(-0.354368993061 0.000156304162825 0)
(-0.353584109593 0.00219727314491 0)
(-0.352410761423 0.00416630257357 0)
(-0.35085291742 0.00607371945037 0)
(-0.348922360961 0.00792488349009 0)
(-0.346628137098 0.00972551346633 0)
(-0.343978865358 0.0114811680149 0)
(-0.340982496473 0.0131972968836 0)
(-0.337646205566 0.0148793546627 0)
(-0.333976278606 0.016532889044 0)
(-0.329977995245 0.0181635831483 0)
(-0.325655508828 0.0197772449816 0)
(-0.321011732564 0.0213797396386 0)
(-0.316048246467 0.0229768604439 0)
(-0.310765243631 0.0245741370119 0)
(-0.305161536921 0.0261765822715 0)
(-0.299234647942 0.0277883863461 0)
(-0.292980998916 0.0294125727534 0)
(-0.286396223812 0.0310506411316 0)
(-0.2794756071 0.0327022297958 0)
(-0.27221464713 0.0343648380567 0)
(-0.2646097266 0.0360336529204 0)
(-0.256658858131 0.0377015238474 0)
(-0.248362465781 0.039359119759 0)
(-0.239724149476 0.0409953072469 0)
(-0.230751360216 0.0425977820742 0)
(-0.221455923402 0.0441539402495 0)
(-0.211854334308 0.0456520118486 0)
(-0.201967775665 0.0470823904764 0)
(-0.191821810848 0.0484391575119 0)
(-0.181445706149 0.0497217445493 0)
(-0.170871431021 0.0509366195755 0)
(-0.160132325289 0.0520989997212 0)
(-0.1492610832 0.0532348377194 0)
(-0.138288288184 0.0543813716359 0)
(-0.127240035375 0.0555893461939 0)
(-0.116134258622 0.0569238440161 0)
(-0.104978422658 0.058460662788 0)
(-0.0937680815135 0.0602851522001 0)
(-0.0824808506621 0.0624881232541 0)
(-0.0710665676024 0.0651442374815 0)
(-0.059446310505 0.0682716808491 0)
(-0.0474854258847 0.0717384838065 0)
(-0.0348617368855 0.0750429631461 0)
(-0.0214177168096 0.0764922101349 0)
(-0.00795158323766 0.0703360818086 0)
(-0.0201297032725 -0.0479963574434 0)
(-0.0407896616097 -0.071910539867 0)
(-0.0650252226311 -0.0893956754775 0)
(-0.0872385705365 -0.102719324587 0)
(-0.107971809737 -0.111733029693 0)
(-0.127317076621 -0.11687602222 0)
(-0.14538288695 -0.11863995955 0)
(-0.162276782963 -0.117706284968 0)
(-0.178055334317 -0.114718767296 0)
(-0.192773629981 -0.110247728078 0)
(-0.206488159712 -0.104775414273 0)
(-0.21925833857 -0.09869142214 0)
(-0.23114377915 -0.0922977045338 0)
(-0.242200689114 -0.0858183519732 0)
(-0.252479362399 -0.0794119662735 0)
(-0.262023099239 -0.0731846315738 0)
(-0.270868391181 -0.0672021026713 0)
(-0.279045883672 -0.0615003853033 0)
(-0.28658163959 -0.0560943723103 0)
(-0.293498360907 -0.0509845547316 0)
(-0.299816385481 -0.046162034579 0)
(-0.305554403483 -0.0416121511925 0)
(-0.31072991705 -0.0373170364695 0)
(-0.315359501734 -0.0332573746062 0)
(-0.319458935931 -0.029413586938 0)
(-0.323043256885 -0.0257666081409 0)
(-0.326126790512 -0.0222983745391 0)
(-0.328723178453 -0.0189921112071 0)
(-0.330845379944 -0.0158324829549 0)
(-0.332505632307 -0.0128056581944 0)
(-0.333715588811 -0.00989930104636 0)
(-0.334487134137 -0.00710243254438 0)
(-0.334833133778 -0.0044051338267 0)
(-0.334763872658 -0.00179868209045 0)
(-0.334277972876 0.000722522948582 0)
(-0.333412902182 0.00315766318409 0)
(-0.332162721276 0.0055107311472 0)
(-0.330540600142 0.00779137781106 0)
(-0.3285563619 0.0100060652048 0)
(-0.326219250042 0.0121611152616 0)
(-0.323538045169 0.0142626780093 0)
(-0.320521026966 0.0163168894325 0)
(-0.317175862292 0.018330006287 0)
(-0.313509458921 0.0203085069395 0)
(-0.309527798704 0.0222591427185 0)
(-0.305235759266 0.024188928875 0)
(-0.300636936131 0.0261050653555 0)
(-0.295733482219 0.0280147786587 0)
(-0.290525986959 0.0299250789392 0)
(-0.285013421522 0.0318424319729 0)
(-0.279193179094 0.033772353767 0)
(-0.273061239212 0.035718945552 0)
(-0.266612481662 0.0376843991667 0)
(-0.259841165698 0.0396685171449 0)
(-0.252741576453 0.0416683008065 0)
(-0.245308821717 0.0436776659606 0)
(-0.237539737774 0.0456873514365 0)
(-0.229433863411 0.0476850544645 0)
(-0.220994432648 0.0496558416173 0)
(-0.212229274027 0.0515829205244 0)
(-0.203151566224 0.053448675705 0)
(-0.193780331522 0.0552360964975 0)
(-0.184140622825 0.0569303988552 0)
(-0.17426337138 0.0585208994787 0)
(-0.164184776345 0.0600030878935 0)
(-0.153945318292 0.0613806918799 0)
(-0.143588827438 0.0626673886008 0)
(-0.133159525314 0.0638902729606 0)
(-0.122701636807 0.0650886414592 0)
(-0.112256837899 0.0663178731318 0)
(-0.101860035888 0.0676527268684 0)
(-0.0915351689912 0.0691790056774 0)
(-0.0812957447419 0.0709936511678 0)
(-0.0711425420676 0.0732099068389 0)
(-0.0610431295317 0.075933196191 0)
(-0.050938829736 0.0792285740345 0)
(-0.040720012581 0.0830366127026 0)
(-0.0300102829745 0.0869846284998 0)
(-0.0187275664605 0.0894743946682 0)
(-0.00675260323844 0.083883034623 0)
(-0.0187607631887 -0.075588633827 0)
(-0.040131842622 -0.0972254672969 0)
(-0.0649976958252 -0.112598198058 0)
(-0.0869064211521 -0.124081792474 0)
(-0.107060661362 -0.131422422177 0)
(-0.125499942191 -0.13504458256 0)
(-0.142420192364 -0.135455334922 0)
(-0.157998841393 -0.133297393291 0)
(-0.172379027327 -0.129191889221 0)
(-0.185689672173 -0.123697350399 0)
(-0.198043082809 -0.117287098732 1.1484790314e-28)
(-0.20953537859 -0.110341703432 -1.13214781896e-28)
(-0.220245811493 -0.103152772977 0)
(-0.230237165616 -0.0959332869619 0)
(-0.239557510843 -0.0888311138155 0)
(-0.248242883994 -0.0819429953926 0)
(-0.256320305255 -0.0753272859455 0)
(-0.263810588533 -0.069014603981 0)
(-0.270730622557 -0.0630162067919 0)
(-0.27709501518 -0.057330285937 0)
(-0.282917147357 -0.0519465518802 0)
(-0.288209761646 -0.0468495019887 0)
(-0.292985229404 -0.0420207178518 0)
(-0.29725562451 -0.0374404644722 0)
(-0.301032701409 -0.0330887920369 0)
(-0.304327844768 -0.0289462816865 0)
(-0.307152032588 -0.0249945337901 0)
(-0.309515823463 -0.021216472125 0)
(-0.31142933557 -0.0175965227626 0)
(-0.312902206248 -0.0141206943653 0)
(-0.313943775673 -0.0107765323084 0)
(-0.314563954581 -0.0075529612364 8.34058504863e-29)
(-0.3147737478 -0.00444031610674 -8.41564025742e-29)
(-0.314580763831 -0.00143098101616 0)
(-0.313979754976 0.00147995296697 0)
(-0.313014692502 0.00429412775501 0)
(-0.311672193582 0.00701739549657 0)
(-0.309966834635 0.00965848502429 0)
(-0.307907490617 0.0122244661265 0)
(-0.305503421816 0.0147219399096 0)
(-0.302763776589 0.0171573566984 0)
(-0.299697488768 0.0195372660449 0)
(-0.296313103954 0.0218684985695 0)
(-0.292618577999 0.0241582941371 0)
(-0.288621048916 0.0264143712355 0)
(-0.284326588232 0.028644926153 0)
(-0.279739943089 0.0308585473856 0)
(-0.274864287858 0.0330640304612 0)
(-0.269701012167 0.0352700813463 0)
(-0.264249579361 0.0374849034313 0)
(-0.258507493908 0.0397156741328 0)
(-0.252470418147 0.0419679303717 0)
(-0.246132477947 0.0442448972661 0)
(-0.239486783862 0.0465468194452 0)
(-0.232526174677 0.0488703675011 0)
(-0.225244173486 0.0512081898857 0)
(-0.217636091223 0.0535487224934 0)
(-0.20970022568 0.0558762786982 0)
(-0.201439162721 0.058171427428 0)
(-0.192860932828 0.0604119729606 0)
(-0.183980069072 0.0625740886818 0)
(-0.174818324825 0.0646341486045 0)
(-0.165405037447 0.0665706475588 0)
(-0.155777165838 0.0683664609829 0)
(-0.145978788169 0.0700113853071 0)
(-0.136059667626 0.0715049538042 0)
(-0.126075944589 0.0728569510594 0)
(-0.116083759446 0.0740950176382 0)
(-0.106142782103 0.0752586080399 0)
(-0.0963097837715 0.0764046736209 0)
(-0.0866391372383 0.0776190996745 0)
(-0.0771722725019 0.0789991432556 0)
(-0.0679343425383 0.0806489688463 0)
(-0.0589514727221 0.0827052923066 0)
(-0.0502028893234 0.0853041151478 0)
(-0.0416497843344 0.0885576585595 0)
(-0.0332230233604 0.0924839481097 0)
(-0.024488347907 0.0968558602465 0)
(-0.0155900431907 0.100316151508 0)
(-0.00544561903139 0.0954699288334 0)
(-0.0173447411505 -0.102920831538 0)
(-0.0385226387464 -0.12238390495 0)
(-0.0630297011279 -0.135506932709 0)
(-0.0841709895417 -0.144892029997 0)
(-0.103537450403 -0.150315414293 0)
(-0.121038719715 -0.152225762305 0)
(-0.136923093113 -0.151138349239 0)
(-0.15139905709 -0.147672750579 0)
(-0.164656400755 -0.142426432639 0)
(-0.176863415892 -0.135934764858 0)
(-0.188161184632 -0.128647244348 0)
(-0.198663041213 -0.120920798768 0)
(-0.208455731019 -0.113024870407 0)
(-0.217602791884 -0.105153193223 0)
(-0.226149184537 -0.0974382415767 0)
(-0.234126192023 -0.0899654363363 0)
(-0.241555822548 -0.0827854959281 0)
(-0.248454290687 -0.0759243427382 0)
(-0.254834479425 -0.0693906306918 0)
(-0.260707499704 -0.0631812730883 0)
(-0.266083562043 -0.0572854285044 0)
(-0.270972386547 -0.0516873570882 0)
(-0.27538334216 -0.0463684696161 0)
(-0.279325454134 -0.0413088017814 0)
(-0.282807369909 -0.0364880738283 0)
(-0.285837335708 -0.0318864430881 0)
(-0.288423206175 -0.0274850228618 0)
(-0.29057247679 -0.0232662280196 0)
(-0.292292306851 -0.0192140062759 0)
(-0.293589563003 -0.0153139692324 0)
(-0.29447112421 -0.0115533222723 0)
(-0.29494465292 -0.00792057673336 0)
(-0.295018556656 -0.0044057673545 0)
(-0.294697208744 -0.00100218288888 0)
(-0.293972872315 0.00229297176219 0)
(-0.292895346927 0.00548113796624 0)
(-0.291443661451 0.00856999117958 0)
(-0.289633641424 0.0115676159093 0)
(-0.287473673183 0.0144808158232 0)
(-0.2849732907 0.0173160290556 0)
(-0.282142312981 0.0200797048561 0)
(-0.278990675454 0.0227785769175 0)
(-0.275528198254 0.0254198723932 0)
(-0.271764330945 0.0280114689037 0)
(-0.267707861498 0.0305619917868 9.86202727157e-29)
(-0.263366589565 0.0330808342603 -9.92208314526e-29)
(-0.258746973139 0.0355780778273 0)
(-0.253853768995 0.03806428879 0)
(-0.248689699461 0.0405501698937 0)
(-0.243255189886 0.043046054 0)
(-0.237548228725 0.0455612416802 0)
(-0.231564404673 0.0481032041868 0)
(-0.225297183039 0.0506766850621 0)
(-0.218738467462 0.0532827793912 0)
(-0.211879448535 0.0559181060504 0)
(-0.204711760627 0.0585741173219 0)
(-0.197228835216 0.0612367687043 0)
(-0.189427306588 0.0638865883305 0)
(-0.181308779176 0.0664988141982 0)
(-0.172881218767 0.0690448434967 0)
(-0.164160444637 0.0714932186273 0)
(-0.155171071861 0.0738121425301 0)
(-0.145947077238 0.0759716620898 0)
(-0.136531970092 0.0779463704338 0)
(-0.126978918597 0.0797182261376 0)
(-0.117346929123 0.0812815259989 0)
(-0.10770785462 0.0826385708444 0)
(-0.0981278559626 0.0838176034062 0)
(-0.0886886780171 0.0848576445384 0)
(-0.0794572666005 0.0858118095504 0)
(-0.0705112235634 0.086777777422 0)
(-0.0619199397328 0.0878715884251 0)
(-0.0537084273673 0.0891985686725 0)
(-0.0459364438058 0.0909200665269 0)
(-0.0385882263031 0.0932032906005 0)
(-0.0316444836458 0.0962045068458 0)
(-0.0250820495232 0.100017523228 0)
(-0.0183917454453 0.104538475187 0)
(-0.0120546764681 0.1087876346 0)
(-0.00404008532893 0.104816029405 0)
(-0.0159325368305 -0.128808934171 0)
(-0.0363868168565 -0.146565343049 0)
(-0.0599677456143 -0.157570491458 0)
(-0.0800571990846 -0.16484247351 0)
(-0.0984867729528 -0.168298294716 0)
(-0.115022892855 -0.168446991259 0)
(-0.129946341398 -0.165823768602 0)
(-0.143467510559 -0.161038668835 0)
(-0.155793805849 -0.154666922063 0)
(-0.16710727431 -0.147215233863 0)
(-0.177558187294 -0.139101467707 0)
(-0.187263957795 -0.130651631964 0)
(-0.196311700314 -0.122107730588 0)
(-0.2047633846 -0.113641234823 0)
(-0.212661871146 -0.105368005884 0)
(-0.220036601312 -0.0973620168692 0)
(-0.226908230369 -0.0896666761928 0)
(-0.233291982168 -0.0823035568452 0)
(-0.239199836177 -0.0752788654373 0)
(-0.244641813036 -0.0685881572068 0)
(-0.249626651724 -0.0622197753463 0)
(-0.254162127662 -0.0561573876926 0)
(-0.258255192012 -0.050381881851 0)
(-0.261912046084 -0.0448727911193 0)
(-0.265138214454 -0.0396093630829 0)
(-0.267938646906 -0.0345713441309 0)
(-0.270317849531 -0.0297395307671 0)
(-0.272280008857 -0.0250961369789 0)
(-0.273829083033 -0.0206250404623 0)
(-0.274968990029 -0.0163119236167 0)
(-0.275704193924 -0.012144135666 0)
(-0.276040328412 -0.00811012255398 0)
(-0.275982607076 -0.00419957054793 9.41960818857e-29)
(-0.275530184146 -0.000407062049633 -9.56292746445e-29)
(-0.274673929871 0.00326432143091 0)
(-0.273470689042 0.00681784467793 0)
(-0.271892722177 0.0102672516293 0)
(-0.269955942036 0.0136175168625 0)
(-0.267668525165 0.016874223833 0)
(-0.265040503711 0.0200430594877 0)
(-0.262082607153 0.0231300417559 0)
(-0.258806029184 0.0261417354762 0)
(-0.25522216346 0.0290854680238 0)
(-0.251342314631 0.0319695184864 0)
(-0.247177356806 0.0348032572987 0)
(-0.242737330895 0.0375972072821 0)
(-0.238030985747 0.0403629909121 0)
(-0.233065284318 0.0431131254895 0)
(-0.227844913555 0.0458606316501 0)
(-0.222371855642 0.0486184289957 0)
(-0.216645093387 0.0513985097771 0)
(-0.210660517673 0.0542109221236 0)
(-0.20441113334 0.0570625813467 0)
(-0.19788766503 0.0599559956606 0)
(-0.191079503537 0.0628881634634 0)
(-0.183976111696 0.0658495188876 0)
(-0.176568760807 0.0688233634591 0)
(-0.168851917946 0.0717861727711 0)
(-0.160825887488 0.0747067940784 0)
(-0.152498189471 0.0775492290056 0)
(-0.14388585967 0.0802726917227 0)
(-0.135016379431 0.0828354851626 0)
(-0.125928767108 0.0851972520263 0)
(-0.116673071827 0.0873223296337 0)
(-0.107313654186 0.0891817213919 0)
(-0.0979158674982 0.0907642773313 0)
(-0.0885757825534 0.09205960438 0)
(-0.0793579434553 0.0930955561203 0)
(-0.0703870892861 0.0939139977841 0)
(-0.0617272873864 0.0945587526289 0)
(-0.0534770330533 0.0951319909203 0)
(-0.0457617328741 0.0957832019301 0)
(-0.0385853234102 0.0966128050072 0)
(-0.0320554717347 0.0978054681199 0)
(-0.026157199967 0.0995628794742 0)
(-0.0208955935072 0.102084531682 0)
(-0.016285831054 0.105542520391 0)
(-0.0117429091932 0.109913468043 0)
(-0.00811649968682 0.114679626807 0)
(-0.00252143001417 0.111660563615 0)
(-0.0145405445565 -0.152990178119 0)
(-0.0339672912457 -0.169416301941 0)
(-0.0563227825525 -0.178482698003 0)
(-0.0752140085527 -0.183742094244 0)
(-0.092621468714 -0.185293887797 0)
(-0.108180934349 -0.183724612123 0)
(-0.12219687432 -0.179600770696 0)
(-0.134863118042 -0.173532809406 0)
(-0.146386440395 -0.166076470701 0)
(-0.156946012147 -0.157708674218 0)
(-0.16668894945 -0.14881333837 0)
(-0.175728986163 -0.139683726347 0)
(-0.184149952193 -0.130533678275 0)
(-0.192011603037 -0.121512621151 0)
(-0.199355865703 -0.112720488362 0)
(-0.206212298974 -0.104220493745 0)
(-0.212602244691 -0.0960491397544 0)
(-0.218541654351 -0.0882236773024 0)
(-0.224042842646 -0.0807475636423 0)
(-0.229115497027 -0.0736144792023 0)
(-0.233767239506 -0.0668113450321 0)
(-0.238003960211 -0.0603206413908 0)
(-0.24183006063 -0.0541222148781 0)
(-0.245248681316 -0.0481946874393 0)
(-0.248261946326 -0.0425165386476 0)
(-0.250871234608 -0.0370669111107 0)
(-0.253077460509 -0.0318261784866 0)
(-0.254881300245 -0.02677632049 0)
(-0.256283355283 -0.0219011633729 0)
(-0.257284503821 -0.0171865032643 0)
(-0.257886929336 -0.0126199473945 0)
(-0.258094622206 -0.0081903175804 0)
(-0.257908762308 -0.00388780595121 0)
(-0.257318538406 0.000292173396878 0)
(-0.256363909412 0.00434314323908 0)
(-0.255022712895 0.00827006122386 0)
(-0.253305137073 0.0120859147836 0)
(-0.251221712887 0.0157937885559 0)
(-0.248782318568 0.0193980803724 0)
(-0.245997824967 0.0229035600152 0)
(-0.242879964165 0.0263155533584 0)
(-0.239441206805 0.0296401602588 0)
(-0.235694559881 0.0328845066315 0)
(-0.231653294466 0.0360569924561 0)
(-0.227330586401 0.0391675042825 0)
(-0.222739056367 0.0422275525417 0)
(-0.2178902077 0.0452502832807 0)
(-0.212793782281 0.0482503054903 0)
(-0.207457078298 0.0512432793897 0)
(-0.201884298943 0.0542452233486 0)
(-0.196076043433 0.0572714949819 0)
(-0.190029012244 0.0603355164837 0)
(-0.183736048598 0.0634472353496 0)
(-0.177186820899 0.0666112944777 0)
(-0.17036883073 0.0698256772021 0)
(-0.163269066889 0.073080134564 0)
(-0.155876625717 0.0763549988859 0)
(-0.148183152568 0.0796228693998 0)
(-0.140187580645 0.082844669277 0)
(-0.131896353606 0.085976275808 0)
(-0.123327967923 0.0889655028183 0)
(-0.11451233887 0.0917588526462 0)
(-0.105494413961 0.0943032300512 0)
(-0.0963291817305 0.0965508295198 0)
(-0.0870973352976 0.0984572417623 0)
(-0.0778597294493 0.100006622142 0)
(-0.0687606792488 0.101172154082 0)
(-0.0598261664562 0.101975135539 0)