/*--------------------------------*- C++ -*----------------------------------*\
| =========                 |                                                 |
| \\      /  F ield         | OpenFOAM: The Open Source CFD Toolbox           |
|  \\    /   O peration     | Version:  v1806                                 |
|   \\  /    A nd           | Web:      www.OpenFOAM.com                      |
|    \\/     M anipulation  |                                                 |
\*---------------------------------------------------------------------------*/
FoamFile
{
    version     2.0;
    format      ascii;
    class       volVectorField;
    location    "1000";
    object      Ua;
}
// * * * * * * * * * * * * * * * * * * * * * * * * * * * * * * * * * * * * * //

dimensions      [0 1 -1 0 0 0 0];


internalField   nonuniform List<vector> 
6400
(
(-0.768490978451 1.44815644117 0)
(-5.16970924655 5.93112578527 0)
(-8.58456462335 8.96410622531 0)
(-10.9395572387 6.83168532946 0)
(-12.3114212991 4.50109146481 0)
(-12.5834381276 -4.23531804962 0)
(-14.4001063557 -8.2696316375 0)
(-15.5320261414 -12.0782000542 0)
(-16.3565796142 -16.0303016094 0)
(-17.0358104291 -20.0895654758 0)
(-17.6109230691 -24.2467088638 0)
(-18.0949897759 -28.4827775758 0)
(-18.5004214654 -32.7772652127 0)
(-18.8399530814 -37.1132533494 0)
(-19.124359572 -41.4774301669 0)
(-19.3621880801 -45.8590139359 0)
(-19.5603745293 -50.2492018118 0)
(-19.7247028043 -54.6409996901 0)
(-19.8600079982 -59.0291110175 0)
(-19.9702939318 -63.4098008859 0)
(-20.0588505225 -67.7807578022 0)
(-20.1283734994 -72.1409749311 0)
(-20.1810726614 -76.4906521346 0)
(-20.2187638334 -80.8311157787 0)
(-20.2429460383 -85.1647546477 0)
(-20.2548662043 -89.4949727971 0)
(-20.2555742504 -93.8261602403 0)
(-20.2459677816 -98.1636855835 0)
(-20.2268376465 -102.5139087 0)
(-20.1988948669 -106.884241021 0)
(-20.1628734515 -111.283238262 0)
(-20.1195297222 -115.720966025 0)
(-20.0702633458 -120.209458861 0)
(-20.0160917236 -124.764177136 0)
(-19.9584498314 -129.399470589 0)
(-19.8784718016 -134.110137645 0)
(-19.7480460849 -138.799639944 0)
(-19.5662015143 -143.251583746 0)
(-19.3517189593 -147.222868737 0)
(-19.1187741279 -150.676370177 0)
(-18.8761898207 -153.59148161 0)
(-18.6279674459 -155.955306989 0)
(-18.3759858089 -157.759643992 0)
(-18.121616302 -159.000260968 0)
(-17.8661189177 -159.676643869 0)
(-17.6106284518 -159.791731769 0)
(-17.3561621123 -159.351699977 0)
(-17.1036809312 -158.365849717 0)
(-16.8541470537 -156.846584792 0)
(-16.608558801 -154.809438934 0)
(-16.3679730348 -152.273138165 0)
(-16.133523378 -149.259691963 0)
(-15.9064348333 -145.794506969 0)
(-15.6880312023 -141.906507012 0)
(-15.479731062 -137.628235615 0)
(-15.2830281919 -132.995906549 0)
(-15.0994530015 -128.049362056 0)
(-14.9305123362 -122.831892015 0)
(-14.7776068863 -117.389868752 0)
(-14.6419275108 -111.772156056 0)
(-14.5243343396 -106.029264174 0)
(-14.425225206 -100.212238538 0)
(-14.3444006076 -94.3712923533 0)
(-14.2809363252 -88.5542164724 0)
(-14.2330650459 -82.8046171375 0)
(-14.1980885599 -77.1600603525 0)
(-14.1722781965 -71.6501717455 0)
(-14.1508716594 -66.2948421353 0)
(-14.1278716684 -61.1024205825 0)
(-14.096383515 -56.0684805679 0)
(-14.0475770541 -51.1738991337 0)
(-13.9732649154 -46.3860239547 0)
(-13.8593261327 -41.6538002534 0)
(-13.703619501 -36.9233522172 0)
(-13.4706542481 -32.1052973216 0)
(-13.2105331712 -27.1769678253 0)
(-12.7164688398 -21.8829546317 0)
(-12.3498148736 -16.4398617591 0)
(-9.99428521896 -8.76443823589 0)
(-8.01298076371 -1.23849157783 0)
(-2.80519522724 -3.14973780857 0)
(-2.51239398673 -5.50404827956 0)
(-4.98221411302 -9.62471712592 0)
(-7.23921205501 -7.82511073626 0)
(-9.99426103126 -5.2823080818 0)
(-12.5315587674 -2.19660838386 0)
(-14.5516378229 0.527200957508 0)
(-16.3719700445 3.01098462615 0)
(-18.101203173 5.45546798203 0)
(-19.7458555273 7.93519565658 0)
(-21.2933897012 10.4743329929 0)
(-22.7352832308 13.0823560052 0)
(-24.0698234326 15.7629224215 0)
(-25.2998447358 18.5158139989 0)
(-26.43032739 21.3385420724 0)
(-27.4670985998 24.2276599372 0)
(-28.416283647 27.1794763526 0)
(-29.2840142125 30.1903826597 0)
(-30.0762119248 33.257044024 0)
(-30.7984384465 36.3765506663 0)
(-31.4558180609 39.5465453175 0)
(-32.0530144041 42.7653257881 0)
(-32.5942380527 46.031928961 0)
(-33.0832689167 49.3461999533 0)
(-33.523485348 52.7088525006 0)
(-33.9178967239 56.1215222612 0)
(-34.2691745276 59.586819518 0)
(-34.5796887991 63.1083808062 0)
(-34.8515265409 66.6909357248 0)
(-35.086557787 70.3403598887 0)
(-35.2863523892 74.0638114789 0)
(-35.4524714518 77.8696585992 0)
(-35.5856984078 81.7679653726 0)
(-35.6896431264 85.7688260932 0)
(-35.7705948228 89.8846619457 0)
(-35.8753114011 94.1139747414 0)
(-36.0071626918 98.1629552216 0)
(-36.1268779737 101.862085694 0)
(-36.1967046536 105.051648984 0)
(-36.2078373014 107.732520074 0)
(-36.159944216 109.903924893 0)
(-36.0524804034 111.566262595 0)
(-35.8838385478 112.722716456 0)
(-35.6521360093 113.379400457 0)
(-35.3555365361 113.545234813 0)
(-34.9922250343 113.231910684 0)
(-34.5603656099 112.453882233 0)
(-34.0581275611 111.228327454 0)
(-33.4837461307 109.575087529 0)
(-32.8355905421 107.516614094 0)
(-32.1122374124 105.077935278 0)
(-31.312557259 102.286638683 0)
(-30.4358199748 99.1728553176 0)
(-29.4818223518 95.7692237859 0)
(-28.4510384471 92.1108027189 0)
(-27.3447910488 88.2348976709 0)
(-26.1654387047 84.1807633831 0)
(-24.9165678512 79.9891499794 0)
(-23.6031745786 75.7016678195 0)
(-22.2318160747 71.3599645772 0)
(-20.8107091208 67.0047232407 0)
(-19.3497531722 62.6745138124 0)
(-17.8604580562 58.4045474022 0)
(-16.3557663218 54.2253993354 0)
(-14.8497625325 50.1617755127 0)
(-13.357296048 46.2313969047 0)
(-11.8934971343 42.4440796122 0)
(-10.4733298703 38.801060237 0)
(-9.1109101333 35.2947178881 0)
(-7.81943756362 31.9085942902 0)
(-6.60954515972 28.6184766104 0)
(-5.49206718272 25.3930959282 0)
(-4.46892212446 22.1999271562 0)
(-3.55704433143 19.0021076192 0)
(-2.72058478585 15.7955709198 0)
(-2.06519554541 12.5491875768 0)
(-1.27828610283 9.49881326666 0)
(-1.38277332924 6.48886083621 0)
(1.39988761793 6.7845577712 0)
(-3.81760012098 7.84007085326 0)
(-6.98758807204 -7.45360945628 0)
(-5.76347332121 -9.58476038786 0)
(-7.09938456234 -5.86143902929 -2.44820532539e-28)
(-6.94922525578 -4.18086707104 1.54578969346e-28)
(-7.29123434485 -3.24621443846 1.56069342668e-28)
(-8.04997290487 -3.15634176528 -1.27848066264e-28)
(-9.04372223767 -3.45511732445 1.84813854218e-28)
(-10.1730926053 -3.87434876841 -1.64413851116e-28)
(-11.3340589512 -4.33882220828 0)
(-12.4491210067 -4.85131765054 0)
(-13.4789815441 -5.43043433607 0)
(-14.4092427866 -6.09123057751 0)
(-15.2375059699 -6.84383278492 0)
(-15.9672300257 -7.69502946136 0)
(-16.6048376488 -8.64900655551 0)
(-17.1579533173 -9.70771031917 0)
(-17.6343492383 -10.8713237763 0)
(-18.0414140791 -12.1388125081 0)
(-18.3859170985 -13.5084054691 0)
(-18.6739158038 -14.9779725454 0)
(-18.9107407973 -16.5453200283 0)
(-19.1010273624 -18.2084293355 0)
(-19.2487723974 -19.9656536218 0)
(-19.3574016488 -21.8158816704 0)
(-19.4298384465 -23.7586769257 0)
(-19.4685705758 -25.794398446 0)
(-19.4757115335 -27.9243145963 0)
(-19.4530611929 -30.1507049955 0)
(-19.4021465481 -32.4769944068 0)
(-19.3242977643 -34.9078239634 -3.02609909591e-27)
(-19.2205880455 -37.4493740512 3.02370319641e-27)
(-19.0920931054 -40.1090887522 0)
(-18.938740407 -42.8973031234 0)
(-18.7595482076 -45.8237037583 0)
(-18.538867667 -48.9089117888 0)
(-18.2583681556 -52.027913591 0)
(-17.9712476201 -54.763997551 0)
(-17.7129024419 -57.0763597546 0)
(-17.4910117401 -58.9669168919 0)
(-17.3004674216 -60.4325770181 0)
(-17.1383286674 -61.4762033686 0)
(-17.0047093673 -62.1065577151 0)
(-16.9004553652 -62.3363869292 0)
(-16.8262458691 -62.1816784052 0)
(-16.7824999932 -61.6614194257 0)
(-16.7693055872 -60.7972921095 0)
(-16.7862652574 -59.613274647 0)
(-16.8323444453 -58.1352529256 0)
(-16.9057516542 -56.3906877301 0)
(-17.0038379263 -54.4083364575 0)
(-17.1230046691 -52.2180173995 0)
(-17.2586200735 -49.8504031247 0)
(-17.4049497858 -47.3368233127 0)
(-17.5551090163 -44.7090501657 0)
(-17.7010452432 -41.9990350088 0)
(-17.8335632132 -39.2385658283 0)
(-17.942406077 -36.4588223951 0)
(-18.0164070103 -33.6898186327 0)
(-18.043723583 -30.9597394909 0)
(-18.0121620725 -28.2941996541 0)
(-17.9095899531 -25.7154693756 0)
(-17.7244241072 -23.2417277443 0)
(-17.4461673989 -20.8864110051 0)
(-17.0659584029 -18.6577237838 0)
(-16.5770785134 -16.5583716203 0)
(-15.9753888318 -14.5855686913 0)
(-15.2595910686 -12.7313401179 0)
(-14.4314397054 -10.9831957835 0)
(-13.4954617878 -9.32513042457 0)
(-12.4593336807 -7.73934589404 0)
(-11.3317689687 -6.20796662741 0)
(-10.1264898346 -4.71759162603 0)
(-8.84843144319 -3.25973973096 0)
(-7.52819898991 -1.84831384083 0)
(-6.11900592529 -0.492350440919 0)
(-4.79554246246 0.702454624469 0)
(-3.08685465401 1.87494170502 0)
(-2.69619095198 2.56882948861 0)
(2.50666098896 6.19570743443 0)
(-5.4909940274 8.30469597569 0)
(-6.74397149097 -12.124096285 0)
(-8.86943299005 -4.57823474714 0)
(-6.1410426862 -3.28332462617 0)
(-4.91235082172 -4.34996138997 0)
(-5.78911182428 -4.93444641581 0)
(-7.20262078293 -5.11419539439 0)
(-8.66825377549 -5.0487936202 0)
(-10.1127293477 -4.77397046902 0)
(-11.4758669462 -4.34190289845 0)
(-12.7191155152 -3.81219477841 0)
(-13.8391294323 -3.22610763482 0)
(-14.8480454438 -2.60578948754 0)
(-15.7598238063 -1.9613133747 0)
(-16.5871066928 -1.29576136599 0)
(-17.3410919227 -0.608060202973 0)
(-18.0313955899 0.105266817406 0)
(-18.6659543415 0.848911889285 0)
(-19.2511727765 1.62800456168 0)
(-19.7921968973 2.44765332511 0)
(-20.2931779977 3.31271630457 0)
(-20.7574875434 4.22772226643 0)
(-21.1878900081 5.19688542454 0)
(-21.5866834762 6.22417768591 0)
(-21.9558123473 7.31343575482 0)
(-22.296956834 8.46848904184 0)
(-22.6116007562 9.69329932995 0)
(-22.9010895938 10.992108946 0)
(-23.1666578885 12.3695925076 0)
(-23.4094948125 13.8310223088 0)
(-23.6306469687 15.3824269007 0)
(-23.8313170951 17.0308045824 0)
(-24.0119324547 18.7842586346 0)
(-24.1747999576 20.6524842779 0)
(-24.3179425571 22.6469979108 0)
(-24.4591505131 24.7841598561 0)
(-24.5731661496 26.7951711789 0)
(-24.6213248443 28.4953361416 0)
(-24.606131289 29.8767545431 0)
(-24.5364366514 30.9299328107 0)
(-24.4124949602 31.6562349996 0)
(-24.232726488 32.0658486366 0)
(-23.9977059307 32.1745720999 0)
(-23.7093690927 32.0025519492 0)
(-23.3700093034 31.5734977774 0)
(-22.9821851233 30.9137455155 0)
(-22.5489145571 30.0513200935 5.78598497358e-27)
(-22.0737810413 29.0151271287 -5.84040107651e-27)
(-21.5609564132 27.8342705413 0)
(-21.0152024345 26.537471276 0)
(-20.4418604487 25.1525807862 0)
(-19.8468145357 23.7061869543 0)
(-19.2364169586 22.2233014345 0)
(-18.6173698402 20.7271093583 0)
(-17.9965578842 19.2387589191 0)
(-17.3808269434 17.7771703108 0)
(-16.776705572 16.3588490074 0)
(-16.1900720168 14.9976984288 0)
(-15.625777069 13.7048388304 3.78546468613e-27)
(-15.0872432555 12.4884526727 -3.88123334585e-27)
(-14.5760716335 11.3536869045 0)
(-14.0916968551 10.3026478432 0)
(-13.6311373055 9.3345217639 0)
(-13.1888843982 8.44584860137 0)
(-12.7569723195 7.63095835241 0)
(-12.3252382073 6.88257181945 0)
(-11.8818017075 6.19254105132 0)
(-11.4136624785 5.55273089408 0)
(-10.9075903603 4.95595524895 0)
(-10.350680824 4.39713938938 0)
(-9.73210298697 3.87430401471 0)
(-9.04171428877 3.39047073256 0)
(-8.27728406424 2.95349376897 0)
(-7.42745539645 2.58220868663 0)
(-6.52211803299 2.2937549019 0)
(-5.48896752637 2.14265990408 0)
(-4.5739771845 2.09989216393 0)
(-3.09740382914 2.42246441598 0)
(-3.44384912519 2.60737780867 0)
(3.06863955185 6.33378973416 0)
(-7.49971918991 7.87713830237 0)
(14.5106866482 -22.8366842672 0)
(-5.00882207393 -4.33274778496 0)
(-2.5498543551 -4.37892081445 0)
(-3.06724116611 -6.03278847923 0)
(-5.50457922534 -6.53154124 0)
(-7.49569273084 -6.55161912813 0)
(-9.03159494646 -6.34860241171 0)
(-10.3511688789 -5.98478346788 0)
(-11.497533074 -5.5397261078 0)
(-12.4833673387 -5.08290991231 0)
(-13.3396793015 -4.65455162076 0)
(-14.096874378 -4.27413879237 0)
(-14.7757912933 -3.9502313433 0)
(-15.3899902908 -3.68567693743 0)
(-15.9487976527 -3.48037950049 0)
(-16.45873585 -3.33296116222 0)
(-16.924263673 -3.241715448 0)
(-17.3483907652 -3.20509259477 0)
(-17.7331870369 -3.22191895923 0)
(-18.0801378557 -3.29147916398 0)
(-18.3903662188 -3.4135310237 0)
(-18.6647688346 -3.58829354427 0)
(-18.9041001106 -3.81643108298 0)
(-19.1090231636 -4.09904675726 0)
(-19.2801384675 -4.43769041073 0)
(-19.4179998849 -4.83438512559 0)
(-19.5231184881 -5.29166966428 0)
(-19.595971081 -5.81266781941 0)
(-19.6369762925 -6.401155137 0)
(-19.6465447021 -7.06171123513 0)
(-19.6249081103 -7.79969426927 -4.27659031503e-27)
(-19.5725330852 -8.62177436331 4.29290967795e-27)
(-19.4887822276 -9.5348293906 0)
(-19.3749550432 -10.5496537784 0)
(-19.2252749232 -11.660978871 0)
(-19.0686462993 -12.621163147 0)
(-18.9219228481 -13.3763381564 0)
(-18.7885069946 -13.9098429654 0)
(-18.67011047 -14.2207525054 0)
(-18.5655192628 -14.3165614087 0)
(-18.4716761482 -14.2092908764 0)
(-18.385695479 -13.9154746976 0)
(-18.304986428 -13.4557089921 0)
(-18.2266666266 -12.8533402609 0)
(-18.1473511086 -12.133102474 0)
(-18.06323906 -11.3199929204 0)
(-17.9702203853 -10.4383445839 0)
(-17.8639492048 -9.51106142001 0)
(-17.7399331066 -8.5590289372 0)
(-17.5936635202 -7.60070737589 0)
(-17.4207824168 -6.65189548984 0)
(-17.2172747504 -5.72564098479 0)
(-16.9796783264 -4.83227094589 0)
(-16.7053013498 -3.9795147212 0)
(-16.3924328191 -3.17269489061 0)
(-16.0405250091 -2.41496571518 0)
(-15.6503220755 -1.70758564834 0)
(-15.2239057336 -1.05021574418 0)
(-14.764629316 -0.441241209605 0)
(-14.276917771 0.121885659924 0)
(-13.7659227351 0.642285464174 0)
(-13.2370415319 1.12328449824 0)
(-12.6953281786 1.56805514634 0)
(-12.1448546738 1.9792837374 0)
(-11.5880784713 2.35888925419 0)
(-11.0253347128 2.70780078356 0)
(-10.4544274811 3.02582668763 0)
(-9.87066299332 3.31155479442 0)
(-9.26663056488 3.56243547986 0)
(-8.63381762874 3.77464557303 0)
(-7.96051727202 3.94401925638 0)
(-7.24160908604 4.06479807452 0)
(-6.45711863368 4.13650557371 0)
(-5.64133604383 4.15125046507 0)
(-4.69492062763 4.14394681885 0)
(-3.94881735436 4.06377440827 0)
(-2.49852806808 4.20377197747 0)
(-3.52282988625 3.99550571298 0)
(4.30449800492 7.52658638884 0)
(-9.51131300104 8.0513142311 0)
(26.7140757518 -21.7515608913 0)
(-8.17509578467 -3.38148264142 0)
(-2.21196653123 -6.77139501642 0)
(-3.62663751343 -8.46642167016 0)
(-6.59810696913 -8.55372275062 0)
(-8.39963545086 -8.23774751148 0)
(-9.60445067857 -7.71872095776 0)
(-10.607327734 -7.07737165231 0)
(-11.465043633 -6.40801667172 0)
(-12.2029910054 -5.76608166232 0)
(-12.8603645774 -5.17169765426 0)
(-13.4664194573 -4.62867328859 0)
(-14.0364993933 -4.13415716507 0)
(-14.5779722872 -3.68228418947 0)
(-15.0944059611 -3.26604527666 0)
(-15.5872763465 -2.87838023196 0)
(-16.056796086 -2.51267387228 0)
(-16.5025066944 -2.16289587785 0)
(-16.9236938628 -1.82358975747 0)
(-17.3196299331 -1.48980898057 0)
(-17.689693586 -1.15703502076 0)
(-18.0334206668 -0.821090817905 0)
(-18.3505203187 -0.478056744088 0)
(-18.6408740071 -0.124190702759 0)
(-18.9045267211 0.244148581716 0)
(-19.1416760452 0.630579029755 0)
(-19.35266136 1.03877457524 0)
(-19.5379572061 1.4725563071 0)
(-19.6981622885 1.93598239587 0)
(-19.8340134985 2.43349155513 0)
(-19.9463412145 2.96996631379 0)
(-20.0362633363 3.55113117286 0)
(-20.1048311119 4.18314428088 0)
(-20.154543391 4.87470638202 0)
(-20.1831761346 5.60153782532 0)
(-20.1720333927 6.21707349463 0)
(-20.1169708612 6.7075137109 0)
(-20.0192975994 7.06512821619 0)
(-19.8817467939 7.28833190845 0)
(-19.7070419204 7.38176782883 0)
(-19.4976266153 7.35635000169 0)
(-19.2563297857 7.22756408242 0)
(-18.9866363465 7.01347011473 0)
(-18.6924074454 6.73324859115 0)
(-18.377578829 6.40609432424 0)
(-18.0460094135 6.05025334879 0)
(-17.7013707519 5.68223108121 0)
(-17.3470081701 5.31623601062 0)
(-16.9857893911 4.96386539064 0)
(-16.6199697811 4.63400366943 0)
(-16.2510874019 4.33289835688 0)
(-15.8798943376 4.06437724608 0)
(-15.5063328273 3.83017043638 0)
(-15.1295662431 3.63030047125 0)
(-14.7480729853 3.46350758375 0)
(-14.3598066111 3.32768089905 0)
(-13.9624184663 3.22027151491 0)
(-13.5535295151 3.13866648371 0)
(-13.1310263723 3.08050603214 0)
(-12.6933448499 3.04392825923 0)
(-12.2396939307 3.02773082311 0)
(-11.7701716213 3.03143798673 0)
(-11.2857245895 3.05527546892 0)
(-10.7879326959 3.1000504087 0)
(-10.2785963994 3.16696038965 0)
(-9.75921342478 3.25732130333 0)
(-9.23027072695 3.37228447384 0)
(-8.6908025699 3.51243257982 0)
(-8.13737375601 3.67745708247 0)
(-7.56519143393 3.86537762782 0)
(-6.96438907389 4.07262243012 0)
(-6.33139647157 4.29106163656 0)
(-5.64047294034 4.51343893684 0)
(-4.93168427117 4.71592855744 0)
(-4.06951033367 4.91187394408 0)
(-3.4702411884 5.00544459439 0)
(-1.96103141202 5.2806280236 0)
(-3.63809587664 5.02661330274 0)
(5.80129794579 8.74081361855 0)
(-11.8039277604 8.43357396552 0)
(38.8590345771 -21.5199355732 0)
(-13.8575619594 -4.50808314324 0)
(-2.43807132925 -9.88769658999 0)
(-4.61067438869 -10.6575854401 0)
(-7.51171992983 -10.0825204345 0)
(-8.79422510737 -9.37748313559 0)
(-9.58997269003 -8.58308059299 0)
(-10.2882799343 -7.7708307392 0)
(-10.9066382451 -7.01586904674 0)
(-11.4641562929 -6.34193587707 0)
(-11.9925096376 -5.74658032813 2.26328549104e-27)
(-12.5095071385 -5.22137025366 -2.23181990766e-27)
(-13.0203454421 -4.75717008295 0)
(-13.5246635228 -4.34517328079 0)
(-14.0200523559 -3.9775573317 0)
(-14.5032527894 -3.64783618631 0)
(-14.9707231807 -3.35085041605 0)
(-15.4190258655 -3.08258803877 0)
(-15.845057381 -2.83998619362 0)
(-16.246145307 -2.62076227923 0)
(-16.6200623445 -2.42327816399 0)
(-16.9649999709 -2.24643436607 0)
(-17.2795259231 -2.08959118581 0)
(-17.5625375115 -1.95251368752 0)
(-17.8132165542 -1.83533646057 0)
(-18.0309887916 -1.7385450683 0)
(-18.2154889711 -1.6629710978 0)
(-18.3665307754 -1.60980097454 0)
(-18.4840853384 -1.58059404925 0)
(-18.5682518573 -1.57732134812 0)
(-18.6192757475 -1.60239940226 0)
(-18.6374160326 -1.65879725241 4.87471086352e-27)
(-18.6232755875 -1.75008107985 -4.91790646468e-27)
(-18.5768233724 -1.88077718965 0)
(-18.5025086251 -2.0192388257 0)
(-18.4132128893 -2.10063729477 0)
(-18.3118063801 -2.11557988498 0)
(-18.1992719974 -2.06007971735 0)
(-18.0762273905 -1.93573249311 0)
(-17.9425214692 -1.74878231261 0)
(-17.797011261 -1.50851573326 0)
(-17.6380010926 -1.22596771249 0)
(-17.4637251651 -0.9129890797 0)
(-17.2725142471 -0.581340505923 0)
(-17.062824867 -0.24183558621 0)
(-16.8333126252 0.0962981662917 0)
(-16.5829402818 0.425782960113 0)
(-16.3110611436 0.741411591395 0)
(-16.0174596124 1.03997022929 0)
(-15.7023555135 1.32000389156 0)
(-15.3663762009 1.58146954255 0)
(-15.0104960692 1.82532757661 0)
(-14.6359457451 2.05312104347 0)
(-14.2440987077 2.26658654053 0)
(-13.8363477574 2.46733200671 0)
(-13.4139874108 2.65660832668 0)
(-12.9781207655 2.83519116477 0)
(-12.5296099558 3.00337929627 0)
(-12.0690853814 3.16110403325 0)
(-11.5970216242 3.30813047077 0)
(-11.1138711241 3.44432780837 0)
(-10.6202328333 3.56996462166 0)
(-10.1170047556 3.68599646215 0)
(-9.60547774188 3.79428534293 0)
(-9.08728131466 3.89774280052 0)
(-8.56421647103 4.00029897614 0)
(-8.03777768796 4.10681250629 0)
(-7.50885791158 4.22267786291 0)
(-6.97652747155 4.35345038462 0)
(-6.43919078167 4.50385697506 0)
(-5.889510626 4.67762340837 0)
(-5.32778480057 4.87365900563 0)
(-4.72528704235 5.09118727746 0)
(-4.13274505339 5.30873405382 0)
(-3.37640248784 5.54180415134 0)
(-2.96873227898 5.67584623252 0)
(-1.42040238982 6.01406077446 0)
(-3.88655820834 5.70235771595 0)
(7.41828128283 9.7224108551 0)
(-14.3657121157 8.71107150626 0)
(51.4298783951 -20.9290862286 0)
(-20.7782225329 -6.57922524903 0)
(-1.9573228565 -13.1763855858 0)
(-5.23290022533 -12.5496416428 0)
(-7.79258265536 -11.336144175 0)
(-8.56464528706 -10.2944606619 0)
(-9.08825487609 -9.28688524808 0)
(-9.61810597098 -8.36407881244 0)
(-10.1207582629 -7.56189559867 0)
(-10.608293274 -6.86940630798 0)
(-11.1018967441 -6.26552078796 0)
(-11.6082113779 -5.73255504551 0)
(-12.124862441 -5.25633298954 0)
(-12.6466700904 -4.8252702812 0)
(-13.1678355445 -4.43012123646 0)
(-13.6825782845 -4.06370721787 0)
(-14.1854804105 -3.72050102619 0)
(-14.6717101023 -3.39621251926 0)
(-15.1371187208 -3.0874551039 0)
(-15.5782448494 -2.79149584295 0)
(-15.9922685643 -2.50607100688 0)
(-16.3769453573 -2.2292508126 0)
(-16.7305358318 -1.95934121812 0)
(-17.0517393784 -1.69481219863 0)
(-17.33963556 -1.43424391114 0)
(-17.5936352426 -1.17628289212 0)
(-17.8134396397 -0.91960353791 0)
(-17.9990126777 -0.662868832122 0)
(-18.150547965 -0.404689229129 0)
(-18.2684816942 -0.14357487245 0)
(-18.3534020285 0.122128341904 0)
(-18.4062718849 0.39428196376 0)
(-18.4277732426 0.675170004674 0)
(-18.4198828498 0.967186848166 0)
(-18.3801774592 1.2468026438 0)
(-18.3061165296 1.49028065425 0)
(-18.1978307473 1.69402549632 0)
(-18.0571138526 1.85785301359 0)
(-17.8864990316 1.9844444785 0)
(-17.6887400003 2.07857364883 0)
(-17.4665068937 2.146552022 0)
(-17.2223584979 2.19558386136 0)
(-16.958794585 2.23295473403 0)
(-16.6781853463 2.26531672496 0)
(-16.3826169821 2.29823520531 4.41933551899e-27)
(-16.0737719076 2.33597652258 -4.44602079713e-27)
(-15.7528785915 2.3814762178 0)
(-15.4207084069 2.4364484771 0)
(-15.0776038963 2.5015986302 0)
(-14.7235384509 2.57688930881 0)
(-14.3582060098 2.66181042411 0)
(-13.9811312585 2.75561313953 0)
(-13.5917863729 2.85748212038 0)
(-13.1896997724 2.96663373681 0)
(-12.7745437385 3.08234071828 0)
(-12.3461906108 3.20389585905 0)
(-11.904732669 3.33053649228 0)
(-11.4504690006 3.46135910072 0)
(-10.9838702911 3.59525836703 0)
(-10.5055449882 3.73091305366 0)
(-10.0162246657 3.86686336356 0)
(-9.51679427822 4.00166615672 0)
(-9.00835190799 4.1341594682 0)
(-8.49230508776 4.26375282814 0)
(-7.97040249264 4.39079686783 0)
(-7.44476229286 4.51677430892 0)
(-6.9175842944 4.64457358721 0)
(-6.39110093521 4.77827722048 0)
(-5.86638602505 4.92296914757 0)
(-5.34486075196 5.08369714068 0)
(-4.82211087725 5.2652825967 0)
(-4.30402463905 5.46786263772 0)
(-3.76142339764 5.69205001423 0)
(-3.2619316731 5.9153978071 0)
(-2.59516497907 6.15522664685 0)
(-2.3897925361 6.28200622015 0)
(-0.794985923132 6.62688371581 0)
(-4.21015975346 6.18997852278 0)
(9.21746382312 10.5212322758 0)
(-17.1315296327 8.86499829398 0)
(65.0475334192 -20.5317180425 0)
(-28.8667018447 -9.50808963721 0)
(-0.621836351378 -16.2678951944 0)
(-5.59429779939 -13.9284102172 0)
(-7.60337114698 -12.2190047657 0)
(-7.97402916868 -10.9316218652 0)
(-8.36804104199 -9.79312337945 0)
(-8.83058724667 -8.82918465506 0)
(-9.29566578521 -8.02903440504 0)
(-9.77363819921 -7.35364871865 0)
(-10.2763972599 -6.77035981613 0)
(-10.8025343489 -6.25623372725 0)
(-11.3453024554 -5.79444442308 0)
(-11.8970362652 -5.37240845155 0)
(-12.4501967778 -4.98093336496 0)
(-12.99769381 -4.6134716167 0)
(-13.5331239798 -4.26541917225 0)
(-14.0509022233 -3.93354975874 0)
(-14.5462844155 -3.6155991267 0)
(-15.0153231458 -3.30997150011 0)
(-15.4547924639 -3.0155375677 0)
(-15.8621023981 -2.73150000811 0)
(-16.235214807 -2.45730777856 0)
(-16.5725665917 -2.19260435333 0)
(-16.8730033491 -1.93719883799 0)
(-17.1357233991 -1.6910509723 0)
(-17.3602329453 -1.45426662027 0)
(-17.5463086547 -1.22709517136 0)
(-17.6939715121 -1.00994045544 0)
(-17.8034616335 -0.803352659773 0)
(-17.8752300654 -0.608079554184 0)
(-17.9099253735 -0.424984666635 0)
(-17.9084456668 -0.25530924729 5.55249826284e-27)
(-17.8721819628 -0.100018827509 -5.63593346198e-27)
(-17.8036741985 0.0569346610323 0)
(-17.7062233017 0.223195063763 0)
(-17.58110452 0.400448224797 0)
(-17.4294516421 0.588476345383 0)
(-17.25236134 0.785295058531 0)
(-17.0507879238 0.987690339732 0)
(-16.8255323468 1.19195213582 0)
(-16.5773537108 1.39455232854 0)
(-16.3071205882 1.59258344357 0)
(-16.015893085 1.78397923294 0)
(-15.7049151875 1.96759368021 0)
(-15.3755646872 2.14316370225 0)
(-15.0292921441 2.31116565902 0)
(-14.6675492919 2.47260081536 0)
(-14.2917064483 2.62875846224 0)
(-13.9029711055 2.78099716798 0)
(-13.5023243007 2.93056933849 0)
(-13.090487316 3.07850139061 0)
(-12.6679251859 3.22553146483 0)
(-12.2348874031 3.37209845402 0)
(-11.7914800977 3.51836837223 0)
(-11.3377571318 3.66428363926 0)
(-10.873812922 3.8096170998 0)
(-10.3998600073 3.95401814822 0)
(-9.91627343265 4.09705351316 0)
(-9.42360962504 4.23821328979 0)
(-8.92259351884 4.37696466401 0)
(-8.41412119934 4.51278793366 0)
(-7.8992554872 4.64534680477 0)
(-7.37929053025 4.77462496385 0)
(-6.85577766174 4.90133555427 0)
(-6.33063889416 5.02700346804 0)
(-5.80602524018 5.15457004007 0)
(-5.28443747015 5.28809548158 0)
(-4.76773297161 5.43291881558 0)
(-4.25916493409 5.59437028492 0)
(-3.75616480734 5.77777041877 0)
(-3.2700159689 5.98324644764 0)
(-2.77122134806 6.21070438214 0)
(-2.34785094046 6.43479420891 0)
(-1.75249175131 6.6724235678 0)
(-1.74753762605 6.77738280172 0)
(-0.0759607010379 7.10745330384 0)
(-4.5970645678 6.51401347821 0)
(11.2850104663 11.1817396612 0)
(-20.108164957 8.92409183301 0)
(79.699285346 -20.2629283846 0)
(-38.046700309 -12.936740939 0)
(1.72696104718 -18.8480145499 0)
(-5.79939030514 -14.8055750404 0)
(-7.08296910117 -12.8628178938 0)
(-7.22458992509 -11.434173128 0)
(-7.60338869964 -10.2399676839 0)
(-8.06008140196 -9.28255044318 0)
(-8.53106274185 -8.50882784843 0)
(-9.02962541542 -7.86240325338 0)
(-9.56077435144 -7.3048092217 0)
(-10.1185288872 -6.81009625827 0)
(-10.6942230531 -6.35980987421 0)
(-11.2791490753 -5.94088571893 0)
(-11.8649982715 -5.54437234331 0)
(-12.4441131881 -5.16432021928 0)
(-13.0096945831 -4.79686644398 0)
(-13.5558839243 -4.4395490456 0)
(-14.0777459282 -4.09081894275 0)
(-14.5711992055 -3.74970377236 0)
(-15.0329258451 -3.41558463788 0)
(-15.460276473 -3.08805429765 0)
(-15.8511802751 -2.76683175997 0)
(-16.2040647077 -2.45171371523 0)
(-16.5177874818 -2.14254882068 0)
(-16.791579424 -1.83922363697 0)
(-17.0250000937 -1.54165615914 0)
(-17.2178991801 -1.24978555117 0)
(-17.3703928094 -0.963573843676 0)
(-17.4828377374 -0.682972733099 0)
(-17.5558225673 -0.407966628962 0)
(-17.5901859301 -0.13841654265 0)
(-17.5869064192 0.125597579844 0)
(-17.5474731285 0.384491188682 0)
(-17.4710225206 0.630346450635 0)
(-17.3586308751 0.861413786842 0)
(-17.2117431664 1.07768971918 0)
(-17.0322547605 1.28020089611 0)
(-16.822310565 1.47062053054 0)
(-16.5841447695 1.65091535102 0)
(-16.3199504175 1.82307837491 0)
(-16.0318125836 1.9889398454 0)
(-15.7216978048 2.15003298551 0)
(-15.3914555476 2.30752922187 0)
(-15.0428070531 2.46226504449 0)
(-14.6773326081 2.61484094608 0)
(-14.2964704009 2.76574332771 0)
(-13.9015226381 2.91544662823 0)
(-13.4936581042 3.06447282368 0)
(-13.0739066705 3.21340041827 0)
(-12.6431483809 3.36282605657 0)
(-12.2021029394 3.5132905092 0)
(-11.7513269859 3.66518792241 0)
(-11.2912260904 3.81868157045 0)
(-10.8220880703 3.97364181011 0)
(-10.3441379522 4.12962728322 0)
(-9.85760960387 4.28590814579 0)
(-9.36282478902 4.44152532279 0)
(-8.86025005936 4.59540885525 0)
(-8.35054887188 4.74642124647 0)
(-7.83457591965 4.89352948493 0)
(-7.31339063134 5.03581676488 0)
(-6.78822360075 5.17274258668 0)
(-6.26048684298 5.30407548859 0)
(-5.73179321245 5.43055823186 0)
(-5.20399583396 5.55353270945 0)
(-4.67925775875 5.67610949009 0)
(-4.16003669212 5.80239006867 0)
(-3.64848218051 5.93811340044 0)
(-3.14915750225 6.08864963701 0)
(-2.66044058688 6.25988564762 0)
(-2.19879501407 6.45194828969 0)
(-1.73480140015 6.66273320905 0)
(-1.37976054382 6.86332591225 0)
(-0.845942901239 7.07080576203 0)
(-1.04377396513 7.13126975163 0)
(0.726785569105 7.40445791721 0)
(-5.07838151645 6.6738646477 0)
(13.7423847017 11.708222317 0)
(-23.3209006739 8.8589605101 0)
(95.2034887222 -20.1879171916 0)
(-48.2050062825 -16.6715606359 0)
(5.12411719651 -20.8045612292 0)
(-6.04824400235 -15.3010353882 0)
(-6.38606578251 -13.3802818217 0)
(-6.47669943883 -11.8689744177 0)
(-6.89437927776 -10.6660940407 0)
(-7.36437435401 -9.73969478302 0)
(-7.85479124333 -9.00321060043 0)
(-8.3806887451 -8.39174765221 0)
(-8.94170745148 -7.86373343406 0)
(-9.52942792948 -7.39103282342 0)
(-10.134282368 -6.95414840359 0)
(-10.7469695255 -6.53998973879 0)
(-11.3587306071 -6.14018550991 0)
(-11.9616214308 -5.74966337318 0)
(-12.5486889416 -5.365555364 0)
(-13.11400745 -4.98640763456 0)
(-13.6526264872 -4.6116315019 0)
(-14.1604790493 -4.24113683827 0)
(-14.6342769732 -3.87509961418 0)
(-15.0714073786 -3.51382425707 0)
(-15.4698378851 -3.15766959557 0)
(-15.8280336924 -2.80701511613 0)
(-16.1448885827 -2.46225094502 0)
(-16.4196659584 -2.12377969006 0)
(-16.6519561974 -1.79202555151 0)
(-16.8416298567 -1.46743858871 0)
(-16.988830524 -1.15051629753 0)
(-17.0938971237 -0.841775307925 0)
(-17.157475338 -0.54185399802 0)
(-17.1801902635 -0.251270599068 0)
(-17.1634524583 0.0288800308243 0)
(-17.1078128329 0.299495781551 0)
(-17.0150658355 0.564134775171 0)
(-16.8863165655 0.823076169972 0)
(-16.7228770632 1.07611517147 0)
(-16.5262257195 1.32263197903 0)
(-16.297964501 1.56176936937 0)
(-16.0398045796 1.79264453805 0)
(-15.7535553274 2.01455949368 0)
(-15.4411159598 2.227156835 0)
(-15.1044712271 2.43048177421 0)
(-14.7456748094 2.62495627548 0)
(-14.3668071592 2.81130574116 0)
(-13.9699150719 2.9904757468 0)
(-13.5569496099 3.16355612823 0)
(-13.1297126952 3.3317167455 0)
(-12.6898152024 3.49615420381 0)
(-12.2386480311 3.65804399177 0)
(-11.7773678733 3.81849093313 0)
(-11.3068985422 3.97847016909 0)
(-10.8279485206 4.1387563043 0)
(-10.341042107 4.29985358384 0)
(-9.84656716292 4.46192327847 0)
(-9.34483329325 4.62474846439 0)
(-8.8361412859 4.78773155032 0)
(-8.32086243456 4.94991508986 0)
(-7.79948074694 5.11016168229 0)
(-7.27266849226 5.26710595152 0)
(-6.74127978467 5.41950088981 0)
(-6.20637360236 5.56606220397 0)
(-5.66921774908 5.70606903134 0)