/*--------------------------------*- C++ -*----------------------------------*\
| =========                 |                                                 |
| \\      /  F ield         | OpenFOAM: The Open Source CFD Toolbox           |
|  \\    /   O peration     | Version:  v1806                                 |
|   \\  /    A nd           | Web:      www.OpenFOAM.com                      |
|    \\/     M anipulation  |                                                 |
\*---------------------------------------------------------------------------*/
FoamFile
{
    version     2.0;
    format      ascii;
    class       volVectorField;
    location    "1000";
    object      Ua;
}
// * * * * * * * * * * * * * * * * * * * * * * * * * * * * * * * * * * * * * //

dimensions      [0 1 -1 0 0 0 0];


internalField   nonuniform List<vector> 
6400
(
(-0.896353123027 -0.393888790334 0)
(-1.78256590988 0.464742650652 0)
(-3.05816860804 1.72499900044 0)
(-4.33722122154 1.62410126213 0)
(-5.40730942239 0.915772107489 0)
(-6.92082285764 -3.54917389271 0)
(-7.88781953915 -5.44677850016 0)
(-8.66640792352 -7.47804187138 0)
(-9.31717100525 -9.70980440541 0)
(-9.8439611127 -12.0825755341 0)
(-10.2683357472 -14.5494581622 0)
(-10.6155215862 -17.0816861956 0)
(-10.9035976076 -19.6610058365 0)
(-11.1439107603 -22.2739563039 0)
(-11.3443685693 -24.9097238774 0)
(-11.5113409253 -27.5596375631 0)
(-11.6501802523 -30.2169362931 0)
(-11.7653051832 -32.8764773933 0)
(-11.8603010363 -35.5344549071 0)
(-11.9380697174 -38.1881904106 0)
(-12.000969392 -40.8359878719 0)
(-12.0509219085 -43.4770265068 0)
(-12.0894954378 -46.1112755698 0)
(-12.1179722365 -48.7394264188 0)
(-12.1374057473 -51.362840385 0)
(-12.1486681388 -53.9835116579 0)
(-12.1524899192 -56.604044085 0)
(-12.1494915876 -59.2276435381 0)
(-12.1402150533 -61.8581237912 0)
(-12.1251424338 -64.4999434256 0)
(-12.1047646156 -67.1582637913 0)
(-12.0795793442 -69.8391846967 0)
(-12.0505011948 -72.5500431738 0)
(-12.0181388022 -75.3003026197 0)
(-11.9833277861 -78.0984451339 0)
(-11.9332037643 -80.9393828174 0)
(-11.8502189151 -83.7591761828 0)
(-11.7372192702 -86.4123108436 0)
(-11.605649907 -88.7707850684 0)
(-11.4636490629 -90.8136315871 0)
(-11.3161402664 -92.5289985026 0)
(-11.1653637333 -93.9093980806 0)
(-11.0124092698 -94.950105501 0)
(-10.8580945336 -95.6487666165 0)
(-10.7031728623 -96.0052489272 0)
(-10.5483260612 -96.0214922968 0)
(-10.3941730979 -95.7013946981 0)
(-10.2413076799 -95.0507623144 0)
(-10.0903321548 -94.0773109992 0)
(-9.94187851297 -92.7906984384 0)
(-9.79662216069 -91.2025780269 0)
(-9.65529300269 -89.3266700778 0)
(-9.51868374934 -87.1788450806 0)
(-9.38765303054 -84.777207311 0)
(-9.26312061411 -82.1421621547 0)
(-9.14605216202 -79.2964439893 0)
(-9.03743145789 -76.2650780746 0)
(-8.93821866703 -73.0752465249 0)
(-8.84929444881 -69.7560301351 0)
(-8.77139119984 -66.3380012979 0)
(-8.70501437585 -62.8526527982 0)
(-8.65035856048 -59.3316584272 0)
(-8.6072232729 -55.8059763798 0)
(-8.57493567272 -52.3048212014 0)
(-8.55228116134 -48.8545405631 0)
(-8.53745465828 -45.4774491737 0)
(-8.52800710537 -42.1906537019 0)
(-8.52085106829 -39.0049610676 0)
(-8.51214987126 -35.9238012278 0)
(-8.49753430261 -32.9425165778 0)
(-8.47150658619 -30.0472893675 0)
(-8.42904218646 -27.2159829815 0)
(-8.36172848221 -24.4155414629 0)
(-8.26879970151 -21.611762014 0)
(-8.12988151883 -18.7505756175 0)
(-7.97820766009 -15.8200374922 0)
(-7.69118063985 -12.675132941 0)
(-7.50908617067 -9.46634553614 0)
(-6.12102656482 -4.97133394027 0)
(-5.06076740467 -0.353026721598 0)
(-1.27834499755 -1.76234495108 0)
(-1.78727842767 -1.29015006839 0)
(-3.70521946921 -2.76523710988 0)
(-5.19415206474 -4.05900029615 0)
(-6.68658917706 -3.35698729118 0)
(-8.01579636228 -1.65712393358 0)
(-9.1068296702 -0.0700977999133 0)
(-10.1731041921 1.4353068633 0)
(-11.2311255918 2.92367661057 0)
(-12.2436113102 4.42977418636 0)
(-13.1911551088 5.97034786538 0)
(-14.0708158093 7.55250379315 0)
(-14.8843828758 9.17833912883 0)
(-15.6341044178 10.8474771187 0)
(-16.3226469143 12.5583932906 0)
(-16.9533732532 14.3090588245 0)
(-17.5301006213 16.0972668226 0)
(-18.0567237595 17.9208304023 0)
(-18.536977978 19.7777214386 0)
(-18.974343405 21.6661707661 0)
(-19.372016106 23.5847436937 0)
(-19.7329019055 25.532399433 0)
(-20.0596210857 27.5085409309 0)
(-20.3545214762 29.5130567792 0)
(-20.619697056 31.5463580925 0)
(-20.8570093364 33.6094112481 0)
(-21.0681075069 35.7037706028 0)
(-21.2544518669 37.8316103599 0)
(-21.4173251988 39.9957673031 0)
(-21.5578754816 42.1997708245 0)
(-21.6770605387 44.4479361555 0)
(-21.7758375479 46.7452930689 0)
(-21.854667364 49.0979633245 0)
(-21.9158939383 51.5118809092 0)
(-21.9637472895 53.9947599703 0)
(-22.0284728421 56.544018603 0)
(-22.1077635536 58.9651000616 0)
(-22.1758252704 61.1605404581 0)
(-22.2116310151 63.04858747 0)
(-22.2107529804 64.6293791486 0)
(-22.1731336294 65.9023404529 0)
(-22.0984167668 66.8677692458 0)
(-21.985631929 67.527662896 0)
(-21.8336643356 67.8857833719 0)
(-21.6414242083 67.9475964927 0)
(-21.4078264472 67.7202612532 0)
(-21.1317693528 67.2126310359 0)
(-20.8121542102 66.4352375396 0)
(-20.4479246461 65.4002645318 0)
(-20.0381106975 64.1215277414 0)
(-19.5818774226 62.6144655113 0)
(-19.0785828544 60.8961375094 0)
(-18.5278487595 58.9852200396 0)
(-17.929645819 56.9019836092 0)
(-17.2843933133 54.6682315612 0)
(-16.5930715189 52.3071780508 0)
(-15.857342448 49.8432412561 0)
(-15.0796713318 47.3017333598 0)
(-14.2634380935 44.7084335434 0)
(-13.4130253276 42.0890427753 0)
(-12.5338679144 39.4685296168 0)
(-11.6324500809 36.8703914933 0)
(-10.7162380416 34.3158656958 0)
(-9.79354343533 31.8231345158 0)
(-8.87331525785 29.4065715643 0)
(-7.96487915391 27.0760748283 0)
(-7.07761555617 24.8365328686 0)
(-6.22066538013 22.6874548911 0)
(-5.40250688097 20.6228449608 0)
(-4.63090521405 18.631270265 0)
(-3.91193842272 16.6965901476 0)
(-3.25165389437 14.7985259042 0)
(-2.65072460804 12.9162706659 0)
(-2.11870187725 11.0271752378 0)
(-1.63404935043 9.12896473121 0)
(-1.25973115767 7.20536335853 0)
(-0.811714100464 5.39749928059 0)
(-0.905017761502 3.62125662981 0)
(0.730588004192 3.85866236573 0)
(-2.23049524545 4.97102778467 0)
(-3.10712077436 -3.90000416751 0)
(-4.80582633561 -4.56758956437 0)
(-5.23055182641 -3.3568349017 -5.77918403445e-29)
(-5.10629980778 -2.64021350782 3.6666126619e-29)
(-5.21601591939 -2.12404551328 6.34062434871e-29)
(-5.5170601774 -2.02853551867 -5.17272531313e-29)
(-5.99415359211 -2.13441319629 8.79879626595e-29)
(-6.60096008023 -2.318819283 -7.80302521897e-29)
(-7.26008168081 -2.54860719319 0)
(-7.90675185398 -2.82220622918 0)
(-8.50776070809 -3.14409703999 0)
(-9.05175775111 -3.51950459904 0)
(-9.53673239193 -3.95334112693 0)
(-9.96414071858 -4.44933878801 0)
(-10.3371458813 -5.00965779873 0)
(-10.6598903165 -5.63506816265 0)
(-10.9368807595 -6.32534201349 0)
(-11.1725280205 -7.0796024063 0)
(-11.3709045201 -7.89658432049 0)
(-11.5356586384 -8.7748381375 0)
(-11.6700044065 -9.7128979723 0)
(-11.7767404901 -10.7094218255 0)
(-11.858281517 -11.7633069366 0)
(-11.9166958953 -12.8737853537 0)
(-11.9537461199 -14.0405052455 0)
(-11.9709290999 -15.2636021329 0)
(-11.9695128928 -16.5437668114 0)
(-11.9505742066 -17.8823061157 0)
(-11.9150201925 -19.2812256787 0)
(-11.8636420723 -20.7432704205 -1.74584903995e-27)
(-11.7970561109 -22.2721329286 1.74464230243e-27)
(-11.7159224282 -23.8722597074 0)
(-11.6200324129 -25.5499232395 0)
(-11.508845358 -27.310847129 0)
(-11.3712558749 -29.167826312 0)
(-11.1978125812 -31.030179122 0)
(-11.0254620874 -32.6453141997 0)
(-10.8722516585 -34.0074399923 0)
(-10.7410178825 -35.1166099624 0)
(-10.6286800986 -35.9708948047 0)
(-10.5337293209 -36.5721387774 0)
(-10.4562739457 -36.9256541614 0)
(-10.3967561312 -37.0391204361 0)
(-10.3555062458 -36.9221811362 0)
(-10.3326960505 -36.5863044599 0)
(-10.3282856688 -36.0445988075 0)
(-10.3419272798 -35.3115785661 0)
(-10.3728739288 -34.4029398721 0)
(-10.4199069281 -33.3353698338 0)
(-10.4812736015 -32.126386706 0)
(-10.5546297986 -30.7942028803 0)
(-10.6369881843 -29.3576010736 0)
(-10.7246762853 -27.8358104143 0)
(-10.8133093485 -26.2483648039 0)
(-10.8977843689 -24.6149240232 0)
(-10.9723032967 -22.955039622 0)
(-11.0304345441 -21.2878532302 0)
(-11.0652218849 -19.6317238596 0)
(-11.0693479122 -18.0037920624 0)
(-11.035355385 -16.4195013802 0)
(-10.9559234188 -14.8921089022 0)
(-10.8241880352 -13.4322250541 0)
(-10.6340869496 -12.047425823 0)
(-10.3807033791 -10.7419788396 0)
(-10.0605719487 -9.51671639049 0)
(-9.67192700136 -8.36908356074 0)
(-9.21483025873 -7.29336926612 0)
(-8.691253692 -6.28116835313 0)
(-8.10485800857 -5.32203911385 0)
(-7.46114613434 -4.40459582193 0)
(-6.76615154728 -3.51765699132 0)
(-6.02869187593 -2.65312328534 0)
(-5.25216496929 -1.80655213103 0)
(-4.45474565164 -0.987829355993 0)
(-3.60867020076 -0.205620477667 0)
(-2.81675097013 0.472762030025 0)
(-1.80093397517 1.12310217003 0)
(-1.57850847092 1.47254451653 0)
(1.50499659597 3.60762842306 0)
(-3.16480878886 5.19245285317 0)
(-1.36500844963 -8.45084112721 0)
(-5.41651977595 -2.3255982967 0)
(-3.76112788112 -1.76789443297 0)
(-3.12833063157 -2.60594418029 0)
(-3.73676498465 -3.05856781098 0)
(-4.58951246913 -3.20624252638 0)
(-5.45467900947 -3.17707677707 0)
(-6.31347522322 -3.0085971863 0)
(-7.12899196819 -2.74219827783 0)
(-7.87296732566 -2.41762579001 0)
(-8.54073624956 -2.06007326045 0)
(-9.13947991935 -1.68275409967 0)
(-9.67843069068 -1.29197375587 0)
(-10.1658880839 -0.889838254129 0)
(-10.608957611 -0.475707084088 0)
(-11.0136495054 -0.0473125036737 0)
(-11.3849362973 0.398389849446 0)
(-11.72684465 0.864687128204 0)
(-12.0425991142 1.35482463168 0)
(-12.3347803504 1.87187265548 0)
(-12.6054670849 2.41868074706 0)
(-12.8563517225 2.99788666744 0)
(-13.0888316103 3.61196115292 0)
(-13.304080586 4.26327502788 0)
(-13.5031056604 4.95417920846 0)
(-13.6867899732 5.68709169391 0)
(-13.8559297755 6.46458914841 0)
(-14.0112509203 7.28950134534 0)
(-14.1534514533 8.16501105116 0)
(-14.2831345789 9.09475774789 0)
(-14.4010090163 10.0829499079 0)
(-14.5072676392 11.1344986473 0)
(-14.6033873594 12.2551530259 0)
(-14.6880273939 13.4521050288 0)
(-14.7729209825 14.7346275328 0)
(-14.8388523533 15.9189406907 0)
(-14.8644388425 16.9189763832 0)
(-14.8527215055 17.7284182252 0)
(-14.8086900343 18.3419160034 0)
(-14.7322163434 18.7607272879 0)
(-14.6224206784 18.9911105071 0)
(-14.4797243241 19.04258656 0)
(-14.3052985879 18.9272771883 0)
(-14.1005185366 18.6594327614 0)
(-13.8669348939 18.2548648424 0)
(-13.6063872611 17.7303911521 3.33430706191e-27)
(-13.3210618303 17.1033602141 -3.36612692573e-27)
(-13.0135037558 16.3912487772 0)
(-12.6866177726 15.6113173172 0)
(-12.3436603533 14.7803200921 0)
(-11.9882142682 13.9142676082 0)
(-11.6241388073 13.0282339901 0)
(-11.2554917751 12.1361972899 0)
(-10.8864198541 11.2508993749 0)
(-10.5210142808 10.3837139037 0)
(-10.1631306887 9.54451516048 0)
(-9.81617584519 8.74154743411 0)
(-9.48286948371 7.98130241489 2.09695496006e-27)
(-9.1649961476 7.26841966467 -2.15106994542e-27)
(-8.8631687196 6.60563057801 0)
(-8.57663076849 5.9937688352 0)
(-8.30312782635 5.43186723283 0)
(-8.03887462468 4.91735513032 0)
(-7.77864149946 4.44635925775 0)
(-7.515962339 4.01410310385 0)
(-7.24347518432 3.61538657771 0)
(-6.95332924498 3.24513736491 0)
(-6.63775152258 2.89899142555 0)
(-6.28940055801 2.57399268826 0)
(-5.90239720828 2.26916712977 0)
(-5.47149069802 1.98663827379 0)
(-4.99624503809 1.73151268928 0)
(-4.47091625504 1.51538458395 0)
(-3.91391664689 1.3485588604 0)
(-3.28295948022 1.26258103477 0)
(-2.72342390244 1.23731182196 0)
(-1.83203479719 1.42003440442 0)
(-2.03503109101 1.50258798744 0)
(1.85393446341 3.72868757571 0)
(-4.3816335855 4.93207461304 0)
(10.1167595242 -13.900348047 0)
(-3.59659027682 -2.33964759626 0)
(-1.68337843463 -2.80325092772 0)
(-2.06504660709 -3.8710081455 0)
(-3.59095715117 -4.15470669997 0)
(-4.78490792785 -4.13574957641 0)
(-5.69121485528 -3.97534515008 0)
(-6.46799831696 -3.71805539434 0)
(-7.14109945949 -3.41660766018 0)
(-7.7170191498 -3.11392848123 0)
(-8.21412547575 -2.83341065682 0)
(-8.65109678307 -2.58568795038 0)
(-9.04111780486 -2.37513673997 0)
(-9.39286353656 -2.20294320588 0)
(-9.71220965954 -2.06859155529 0)
(-10.0031791158 -1.97081640434 0)
(-10.2684879636 -1.90820645647 0)
(-10.5099539468 -1.8795183687 0)
(-10.728807092 -1.88380398065 0)
(-10.9259062697 -1.9204449799 0)
(-11.101881031 -1.98914938954 0)
(-11.2572213595 -2.08993551615 0)
(-11.3923326154 -2.2231153249 0)
(-11.5075679289 -2.38928424909 0)
(-11.6032460154 -2.58932069921 0)
(-11.6796608635 -2.82439802201 0)
(-11.7370841091 -3.09600663952 0)
(-11.7757687974 -3.40599448925 0)
(-11.7959366236 -3.75660266177 0)
(-11.7977987703 -4.15056367654 0)
(-11.7814727254 -4.59106142532 -2.42787053141e-27)
(-11.7471520217 -5.08211532884 2.43740966748e-27)
(-11.6944677625 -5.62772802664 0)
(-11.6237064124 -6.23465257037 0)
(-11.5324585204 -6.89324243649 0)
(-11.4399534944 -7.45247966528 0)
(-11.3537526253 -7.88956823297 0)
(-11.2759060706 -8.19499989137 0)
(-11.2075211448 -8.36859290544 0)
(-11.14770793 -8.41487455699 0)
(-11.0945474649 -8.34108018338 0)
(-11.0462845714 -8.15717092901 0)
(-11.0013193414 -7.87549927538 0)
(-10.9578529788 -7.51001191648 0)
(-10.9137814483 -7.07545056278 0)
(-10.8667539013 -6.58669241336 0)
(-10.8142357626 -6.05820258465 0)
(-10.7535538366 -5.5035828543 0)
(-10.6819533858 -4.93522503305 0)
(-10.5966806898 -4.36407218959 0)
(-10.4950875488 -3.79947980296 0)
(-10.3747513839 -3.24916243614 0)
(-10.2336056727 -2.71921029144 0)
(-10.0700741252 -2.2141598127 0)
(-9.88319857516 -1.73710472102 0)
(-9.67274679695 -1.28983648483 0)
(-9.43928333572 -0.87300761364 0)
(-9.18418495575 -0.486314180328 0)
(-8.90958322873 -0.128695999438 0)
(-8.61822166375 0.201447670782 0)
(-8.31322337072 0.506030641681 0)
(-7.99777849194 0.787048806035 0)
(-7.67477362771 1.04635726114 0)
(-7.34640342545 1.28547024846 0)
(-7.01380296143 1.50539970833 0)
(-6.67677316911 1.70653830088 0)
(-6.33358469609 1.88860514194 0)
(-5.98105769435 2.05061175249 0)
(-5.61450337917 2.19094415943 0)
(-5.22874173793 2.30730873969 0)
(-4.81693598333 2.39728926611 0)
(-4.37638437949 2.45764434572 0)
(-3.89589941528 2.48841221534 0)
(-3.39650666612 2.48531732276 0)
(-2.82006228 2.46947562479 0)
(-2.3634629362 2.40975605776 0)
(-1.48797232089 2.47875864125 0)
(-2.10038662604 2.32860666847 0)
(2.58385859055 4.44542027365 0)
(-5.60482511274 5.02195675987 0)
(16.9641008283 -12.8369135686 0)
(-5.34758429655 -1.99695702613 0)
(-1.38724077241 -4.25167035993 0)
(-2.34589946464 -5.25269604512 0)
(-4.17187240306 -5.28629578302 0)
(-5.24865222085 -5.08004990813 0)
(-5.96130498233 -4.74581509902 0)
(-6.54994983406 -4.33636911485 0)
(-7.04822829986 -3.91224740019 0)
(-7.47244155303 -3.50817016888 0)
(-7.8472250761 -3.13638904216 0)
(-8.19102123241 -2.79886100632 0)
(-8.5137571332 -2.4934252692 0)
(-8.8203497504 -2.21611967271 0)
(-9.11318557709 -1.9623108606 0)
(-9.39321327421 -1.72735482563 0)
(-9.66053075448 -1.50691942316 0)
(-9.91479613217 -1.29708707776 0)
(-10.1554993765 -1.09434831401 0)
(-10.3821173301 -0.895552632749 0)
(-10.5941925521 -0.697847449331 0)
(-10.7913689824 -0.498616834077 0)
(-10.973403949 -0.295423961171 0)
(-11.1401676817 -0.0859574383851 0)
(-11.29163703 0.132019333899 0)
(-11.4278878706 0.360718252012 0)
(-11.5490869484 0.60237692266 0)
(-11.6554881899 0.859315564735 0)
(-11.7474208168 1.13399332909 0)
(-11.8253090107 1.42909559324 0)
(-11.8896092896 1.74757987653 0)
(-11.9410293858 2.0929096093 0)
(-11.9800348258 2.46887677158 0)
(-12.0085891634 2.88077176563 0)
(-12.0239806866 3.30557781562 0)
(-12.0155390536 3.66420783295 0)
(-11.9812827416 3.94865660368 0)
(-11.9221974534 4.15476123131 0)
(-11.8399753575 4.28175605857 0)
(-11.7361831312 4.33257986427 0)
(-11.6122332487 4.31388201014 0)
(-11.4698196916 4.23495412114 0)
(-11.3110353184 4.1065544952 0)
(-11.1381812384 3.9400655569 0)
(-10.953590921 3.74684374072 0)
(-10.7595444201 3.53765104769 0)
(-10.5582005245 3.32219147637 0)
(-10.3515105836 3.10878872928 0)
(-10.1411263583 2.90420681033 0)
(-9.92831904769 2.71359567929 0)
(-9.71391695123 2.5405411787 0)
(-9.49826590076 2.38719797183 0)
(-9.28121807495 2.25448390934 0)
(-9.06215553776 2.14231427096 0)
(-8.84005337137 2.04985645989 0)
(-8.61358403105 1.97578791641 0)
(-8.3812597999 1.91854267794 0)
(-8.14160384764 1.87653374682 0)
(-7.8933327577 1.8483403073 0)
(-7.63552598309 1.83284912102 0)
(-7.36775182893 1.82934293591 0)
(-7.09011975144 1.83752977217 0)
(-6.80323210258 1.85751324652 0)
(-6.50802654934 1.88970755755 0)
(-6.20550438104 1.93470806918 0)
(-5.89639970879 1.99312495509 0)
(-5.58075764422 2.06540981902 0)
(-5.25769035802 2.15162130474 0)
(-4.92481826935 2.25125712706 0)
(-4.57898216292 2.36281171866 0)
(-4.21414123985 2.48382543285 0)
(-3.82815324777 2.60916174246 0)
(-3.40605493021 2.73431901661 0)
(-2.97214405114 2.84507904339 0)
(-2.4466095563 2.94962399473 0)
(-2.07822831211 2.99030120544 0)
(-1.16619210303 3.13582789384 0)
(-2.17470348635 2.95230679598 0)
(3.47505729148 5.16832302739 0)
(-6.98428923759 5.22907608613 0)
(23.9653229916 -12.803016824 0)
(-8.69781419579 -2.86540831039 0)
(-1.47633095266 -6.21036055021 0)
(-2.90407710145 -6.63228180609 0)
(-4.67538598108 -6.25665368279 0)
(-5.44310323586 -5.79769170668 0)
(-5.91298437558 -5.28029910745 0)
(-6.31697819299 -4.75464107189 0)
(-6.66758775386 -4.26915076913 0)
(-6.97952457145 -3.83876001162 0)
(-7.27384947992 -3.46155708522 1.20854648036e-27)
(-7.56235380573 -3.13154857793 -1.19136063587e-27)
(-7.84874774748 -2.84220720108 0)
(-8.13307036388 -2.5873075834 0)
(-8.41389117314 -2.36138130135 0)
(-8.68912676967 -2.15991956936 0)
(-8.95646746015 -1.9793474905 0)
(-9.21366191417 -1.81689702909 0)
(-9.45867736964 -1.67046568993 0)
(-9.68976362811 -1.53849183872 0)
(-9.905461881 -1.41985312968 0)
(-10.1045874685 -1.31378796173 0)
(-10.286201753 -1.21983741535 0)
(-10.4495807406 -1.13780443972 0)
(-10.5941846637 -1.06772698257 0)
(-10.7196305613 -1.0098625397 0)
(-10.8256691113 -0.964682250327 0)
(-10.9121641684 -0.932873263158 0)
(-10.9790800775 -0.915349221027 0)
(-11.0264596958 -0.913267190089 0)
(-11.0544476937 -0.928058325171 0)
(-11.0631892297 -0.961453252741 2.7410039672e-27)
(-11.0531299239 -1.01561021123 -2.76567025686e-27)
(-11.0242564151 -1.09304088746 0)
(-10.9797154487 -1.17063432065 0)
(-10.9265758977 -1.21448386974 0)
(-10.8665508668 -1.21911231808 0)
(-10.8002724926 -1.18232210622 0)
(-10.7280812506 -1.10525970258 0)
(-10.6498175814 -0.991759152924 0)
(-10.5647411954 -0.847364450988 0)
(-10.4718163313 -0.67860093269 0)
(-10.3699838637 -0.492441601751 0)
(-10.2582448014 -0.295771036779 0)
(-10.1356774248 -0.0948829152578 0)
(-10.0014853039 0.104886951014 0)
(-9.85506241726 0.299363950325 0)
(-9.6960407686 0.485595931498 0)
(-9.52431198432 0.661798610844 0)
(-9.3400271977 0.827209218068 0)
(-9.14357718021 0.981875426092 0)
(-8.93555244365 1.12640999871 0)
(-8.71668502474 1.26174061619 0)
(-8.48777710537 1.38888103057 0)
(-8.24962452394 1.50874449392 0)
(-8.00294556249 1.622015219 0)
(-7.74832689319 1.729087239 0)
(-7.48619882431 1.83007329619 0)
(-7.21684883042 1.92488058853 0)
(-6.94047639668 2.01334077988 0)
(-6.65728138139 2.09537681748 0)
(-6.36756809078 2.17118089596 0)
(-6.0718335337 2.24137677636 0)
(-5.77080911619 2.30713981728 0)
(-5.46540985812 2.37025220702 0)
(-5.15660582395 2.43306989838 0)
(-4.84511699363 2.49843087086 0)
(-4.53122528058 2.5693923651 0)
(-4.21405836699 2.64901193902 0)
(-3.89229994731 2.73974851069 0)
(-3.5612767722 2.84332548192 0)
(-3.2209229778 2.95848604509 0)
(-2.85420966729 3.08417409788 0)
(-2.49158502359 3.20707044904 0)
(-2.03003889784 3.33624353592 0)
(-1.77636919737 3.40262091085 0)
(-0.837992293392 3.58617968214 0)
(-2.32244474972 3.36571667488 0)
(4.4426963556 5.75193303022 0)
(-8.51842058484 5.37504978205 0)
(31.3155290859 -12.3940182087 0)
(-12.7712657637 -4.18037299094 0)
(-1.16265556094 -8.20391739269 0)
(-3.26649489716 -7.77586500192 0)
(-4.81572666446 -7.00623306709 0)
(-5.27209445335 -6.33079427453 0)
(-5.57343557279 -5.67609361123 0)
(-5.8704451538 -5.08015903938 0)
(-6.14732346329 -4.56606433159 0)
(-6.41509871431 -4.1265226376 0)
(-6.68824971867 -3.74741751587 0)
(-6.97139659163 -3.41648564704 0)
(-7.26321617643 -3.12371717925 0)
(-7.56043296806 -2.86096592764 0)
(-7.85927386494 -2.6218033497 0)
(-8.15594332738 -2.4012950601 0)
(-8.446886722 -2.19568627988 0)
(-8.72895085854 -2.00210169606 0)
(-8.99944717719 -1.81830597576 0)
(-9.25614819452 -1.64252346242 0)
(-9.49725107404 -1.47330505448 0)
(-9.72132944222 -1.30943155228 0)
(-9.92728384698 -1.1498445225 0)
(-10.114295752 -0.99359658857 0)
(-10.2817873245 -0.839814731515 0)
(-10.4293881995 -0.687671077307 0)
(-10.5569080505 -0.536357933296 0)
(-10.6643181298 -0.38506289777 0)
(-10.7517300703 -0.232943570708 0)
(-10.8194047599 -0.0790983960753 0)
(-10.8676951341 0.0774720831687 0)
(-10.8971927869 0.237884127213 0)
(-10.9082895419 0.40350764319 0)
(-10.9021861997 0.575679533277 0)
(-10.8771152243 0.738190558774 0)
(-10.8318443125 0.879583778124 0)
(-10.7665981762 0.997934755789 0)
(-10.6825075574 1.09324286962 0)
(-10.5810954746 1.16714557079 0)
(-10.463993768 1.22248972219 0)
(-10.332777081 1.26301231268 0)
(-10.1889563564 1.29294756521 0)
(-10.0340071342 1.31654358462 0)
(-9.86932014042 1.33765122161 0)
(-9.69610792225 1.35947051781 2.44654577544e-27)
(-9.51533678617 1.38443579468 -2.46144505015e-27)
(-9.32770014624 1.4142044526 0)
(-9.13361877794 1.44972737565 0)
(-8.93325969556 1.49137791919 0)
(-8.7265739692 1.53910974388 0)
(-8.51335213788 1.59261411062 0)
(-8.29329096441 1.65145360872 0)
(-8.06606282905 1.71515777565 0)
(-7.83137882365 1.78327419042 0)
(-7.58903753236 1.85537616744 0)
(-7.33895359682 1.93103537502 0)
(-7.08116383002 2.00977337191 0)
(-6.81581482494 2.09100886713 0)
(-6.5431403858 2.17402518516 0)
(-6.26344300313 2.25797229658 0)
(-5.97709071777 2.34192293677 0)
(-5.68454006304 2.42498346064 0)
(-5.38638016753 2.50645423216 0)
(-5.08338685448 2.58602167813 0)
(-4.77654203395 2.66394788906 0)
(-4.4670264336 2.74120174017 0)
(-4.1560304395 2.81956463362 0)
(-3.84470147884 2.9014587473 0)
(-3.53342251643 2.98981673892 0)
(-3.22269150384 3.08741873908 0)
(-2.90957073978 3.19673168306 0)
(-2.59727397711 3.31714470761 0)
(-2.26834889146 3.44825741431 0)
(-1.96328517591 3.57600722611 0)
(-1.55677538058 3.71036790122 0)
(-1.4252102759 3.77378354222 0)
(-0.457250892746 3.96207014164 0)
(-2.5133300406 3.66558450423 0)
(5.521432934 6.22601971396 0)
(-10.173992035 5.44744242966 0)
(39.3768750157 -12.1635026172 0)
(-17.5497787406 -6.01584474422 0)
(-0.360776106007 -10.0945567462 0)
(-3.48443652526 -8.63251867359 0)
(-4.68373963554 -7.54924877572 0)
(-4.89267698108 -6.70824069985 0)
(-5.10935850528 -5.96392305108 0)
(-5.36074560417 -5.33839499176 0)
(-5.61294311765 -4.82451025886 0)
(-5.87533964319 -4.39637857941 0)
(-6.15596257203 -4.03168689418 0)
(-6.45389384123 -3.71425240138 0)
(-6.76464550464 -3.43208700158 0)
(-7.08307227808 -3.1762951399 0)
(-7.40413001185 -2.94046008471 0)
(-7.72312701398 -2.72006953284 0)
(-8.03588235095 -2.51198963097 0)
(-8.33879906123 -2.31405085986 0)
(-8.62886236381 -2.12474847946 0)
(-8.90359506474 -1.94303319975 0)
(-9.16099594146 -1.7681683166 0)
(-9.39947529796 -1.59963540518 0)
(-9.6177946008 -1.43707467121 0)
(-9.81501312792 -1.28024903862 0)
(-9.99044297752 -1.12902397625 0)
(-10.1436117053 -0.983356739815 0)
(-10.274233308 -0.843292889459 0)
(-10.3821835891 -0.708963517207 0)
(-10.4674853487 -0.580593656939 0)
(-10.5302895144 -0.458491765875 0)
(-10.5708775283 -0.343098648414 0)
(-10.5896386125 -0.234892127939 0)
(-10.5871306832 -0.134685291589 3.11413494464e-27)
(-10.5642022553 -0.0428388364949 -3.16151747608e-27)
(-10.5224694097 0.0510297457539 0)
(-10.4637400489 0.150307721704 0)
(-10.3887389851 0.255921782912 0)
(-10.2981578821 0.367673726267 0)
(-10.1926668962 0.484355350681 0)
(-10.0728443094 0.604074416364 0)
(-9.93917703703 0.724686071747 0)
(-9.7921338343 0.84418098706 0)
(-9.63225547929 0.960929137479 0)
(-9.46019850679 1.07379926218 0)
(-9.27672613871 1.18219823534 0)
(-9.08267638594 1.28604275114 0)
(-8.87892435162 1.38566974484 0)
(-8.6663380684 1.48170751688 0)
(-8.44572822638 1.57493637836 0)
(-8.21779972106 1.66616195788 0)
(-7.98311500066 1.75611524463 0)
(-7.74207641799 1.84538597332 0)
(-7.49493105361 1.93438986703 0)
(-7.24179758265 2.02336583132 0)
(-6.9827107125 2.11239420378 0)
(-6.71767489763 2.20142642977 0)
(-6.44671598233 2.29031650281 0)
(-6.16992291632 2.3788403614 0)
(-5.88747047725 2.46671545532 0)
(-5.59962703685 2.55360857355 0)
(-5.30674823227 2.63916083772 0)
(-5.00927448676 2.72303149461 0)
(-4.70774208374 2.80498147111 0)
(-4.40281524984 2.8850103231 0)
(-4.09532411607 2.96353444245 0)
(-3.78631317967 3.04152436236 0)
(-3.47695067866 3.12077938415 0)
(-3.16857482067 3.20373575309 0)
(-2.86211037525 3.29351261856 0)
(-2.55920724293 3.39303880539 0)
(-2.25809083905 3.50513022525 0)
(-1.96531401874 3.62901084939 0)
(-1.66328805415 3.76355934974 0)
(-1.4049634082 3.89288103361 0)
(-1.04290317017 4.02664969533 0)
(-1.03309421411 4.07799188857 0)
(-0.0186488763782 4.25748560716 0)
(-2.74268107203 3.8695433486 0)
(6.7649962015 6.61380971146 0)
(-11.9558137477 5.46126539777 0)
(48.0718306379 -11.9899980872 0)
(-22.9758721473 -8.131617402 0)
(1.03127130155 -11.6706238387 0)
(-3.61238237144 -9.17767689827 0)
(-4.35614881433 -7.9313622538 0)
(-4.4203456063 -6.98772722429 0)
(-4.62090917517 -6.20272752465 0)
(-4.86545426631 -5.58056257635 0)
(-5.12154161461 -5.08538208357 0)
(-5.39881049743 -4.67872218702 0)
(-5.69999269475 -4.33352313579 0)
(-6.02068396747 -4.03121600395 0)
(-6.35478729288 -3.75868893576 0)
(-6.69628691599 -3.50681791033 0)
(-7.03958326604 -3.2694655114 0)
(-7.37964465393 -3.04262406618 0)
(-7.71210233794 -2.82373407834 0)
(-8.03326513489 -2.61118849723 0)
(-8.34007706877 -2.40398920085 0)
(-8.63004949459 -2.20151593304 0)
(-8.90118679186 -2.00337580458 0)
(-9.15191505277 -1.80930932872 0)
(-9.38101834451 -1.61913476471 0)
(-9.58758409503 -1.43271706576 0)
(-9.77095824286 -1.2499517606 0)
(-9.93070824341 -1.0707565321 0)
(-10.0665956302 -0.895067456178 0)
(-10.1785504625 -0.72283347367 0)
(-10.2666617956 -0.554017666604 0)
(-10.3311484044 -0.388578416358 0)
(-10.3723921033 -0.226496683016 0)
(-10.3908411285 -0.0676797899309 0)
(-10.3872443169 0.0878133260944 0)
(-10.362052813 0.240190729724 0)
(-10.3152280987 0.384548864431 0)
(-10.2472351124 0.520292132565 0)
(-10.1589791229 0.647493292597 0)
(-10.0516133018 0.766800883325 0)
(-9.92642620161 0.879212016992 0)
(-9.78474795533 0.985872748851 0)
(-9.62787774994 1.08793160331 0)
(-9.45705023229 1.18643673485 0)
(-9.27343243674 1.28226268062 0)
(-9.07812459591 1.37607761031 0)
(-8.87215273056 1.46836383877 0)
(-8.65646104603 1.55947810895 0)
(-8.43191125181 1.6497221466 0)
(-8.19928533986 1.73939924218 0)
(-7.95928545426 1.82884451705 0)
(-7.71252873904 1.91842509394 0)
(-7.45953922507 2.00851276336 0)
(-7.20074054473 2.09943689714 0)
(-6.93645425137 2.19142904421 0)
(-6.66690781286 2.28457449797 0)
(-6.39225513654 2.37877994508 0)
(-6.11260939719 2.47376635937 0)
(-5.82808138424 2.56909238597 0)
(-5.5388234237 2.66418027603 0)
(-5.24506133955 2.75838271185 0)
(-4.94712092841 2.85102657849 0)
(-4.64542823481 2.94148556752 0)
(-4.34050115767 3.02923725548 0)
(-4.03294639908 3.11393290705 0)
(-3.72345254235 3.1955075755 0)
(-3.41282724687 3.274359176 0)
(-3.10202994977 3.35140700397 0)
(-2.79222156045 3.42851339056 0)
(-2.48464804685 3.5082373857 0)
(-2.18047651534 3.59392149796 0)
(-1.88216339512 3.68836244933 0)
(-1.58852862429 3.79510328679 0)
(-1.30957883773 3.91277169231 0)
(-1.02793513326 4.03848792879 0)
(-0.811198851865 4.15439976924 0)
(-0.487773076 4.26972345385 0)
(-0.601388416644 4.29666248746 0)
(0.466486238743 4.43924485424 0)
(-3.02687717804 3.97535170472 0)
(8.25332895489 6.92794480756 0)
(-13.8759440723 5.38743386994 0)
(57.2920058805 -11.9394591396 0)
(-28.9862945283 -10.4322070984 0)
(3.034500073 -12.8781973189 0)
(-3.76497747615 -9.49167565429 0)
(-3.92226630637 -8.2302854687 0)
(-3.94972937034 -7.2219784741 0)
(-4.16886665216 -6.42883132387 0)
(-4.42116248605 -5.82810052645 0)
(-4.69170688753 -5.36010927153 0)
(-4.98934392593 -4.97926706048 0)
(-5.31254815099 -4.6557434438 0)
(-5.65491895381 -4.36945695426 0)
(-6.00958063981 -4.10680524561 0)
(-6.37010980597 -3.85888658426 0)
(-6.73068875978 -3.62014390155 0)
(-7.08621160705 -3.38728459822 0)
(-7.4323265942 -3.15848536134 0)
(-7.76540499637 -2.93283950356 0)
(-8.08247018551 -2.7099861499 0)
(-8.38111443156 -2.48987021138 0)
(-8.65941706486 -2.27259415799 0)
(-8.9158700553 -2.05833250483 0)
(-9.14931368267 -1.84728714736 0)
(-9.35888255067 -1.6396680264 0)
(-9.54396198076 -1.435688234 0)
(-9.70415166482 -1.23556636357 0)
(-9.83924003396 -1.03953257859 0)
(-9.94917595716 -0.847832668747 0)
(-10.0340663385 -0.660739865872 0)
(-10.0941258024 -0.478542497732 0)
(-10.1297549 -0.301595234897 0)
(-10.1413149863 -0.130202525362 0)
(-10.1296921699 0.0350393215467 0)
(-10.0951373245 0.194770503821 0)
(-10.0387480897 0.350924738398 0)
(-9.96113798291 0.503679671928 0)
(-9.86308597166 0.652908592385 0)
(-9.74548652605 0.798245379275 0)
(-9.60930678709 0.939195709137 0)
(-9.45557613098 1.07526148107 0)
(-9.28538167383 1.20606225509 0)
(-9.09986497395 1.33142251694 0)
(-8.90021947746 1.45140301015 0)
(-8.68767923445 1.56628206847 0)
(-8.46349232171 1.67651177674 0)
(-8.2288843184 1.78267007574 0)
(-7.98502159694 1.88541770793 0)
(-7.73297992693 1.98546177244 0)
(-7.47371972877 2.0835250058 0)
(-7.20806879661 2.18031715825 0)
(-6.93671361448 2.27650407486 0)
(-6.66019968811 2.37267065695 0)
(-6.37894200942 2.46927530049 0)
(-6.09324424052 2.56660818711 0)
(-5.8033266477 2.66475272087 0)
(-5.50936080856 2.76356417558 0)
(-5.21150039922 2.86269165421 0)
(-4.90992520252 2.96156509817 0)
(-4.60486395305 3.05949242278 0)
(-4.29663451767 3.15568815604 0)
(-3.9856513495 3.24938871959 0)